<UPF version="2.0.1">
<PP_INFO>
Generated by new atomic code, or converted to UPF format
Author:
Generation date:
Pseudopotential type: US
Element: Cu
Functional:  SLA  PW   PBX  PBC
Suggested minimum cutoff for wavefunctions:  27. Ry
Suggested minimum cutoff for charge density:   0. Ry
The Pseudo was generated with a Scalar-Relativistic Calculation
L component and cutoff radius for Local Potential:  0   0.0000
Pseudopotential contains additional information for GIPAW reconstruction.
Valence configuration:
nl pn  l   occ       Rcut    Rcut US       E pseu
4S  0  0  1.00      2.000      2.500     0.000000
5S  0  0  0.00      2.000      2.500     0.000000
4P  0  1  0.00      2.400      2.600     0.000000
5P  0  1  0.00      2.400      2.600     0.000000
3D  0  2 10.00      1.600      2.500     0.000000
4D  0  2  0.00      1.600      2.500     0.000000
Generation configuration: not available.
</PP_INFO>
<!--
END OF HUMAN READABLE SECTION
-->
<PP_HEADER generated="Generated by new atomic code, or converted to UPF format" author="" date="" comment="" element="Cu" pseudo_type="US" relativistic="scalar" is_ultrasoft="true" is_paw="false" is_coulomb="false" has_so="false" has_wfc="false" has_gipaw="true" paw_as_gipaw="false" core_correction="true" functional=" SLA  PW   PBX  PBC" z_valence="1.100000000000e1" total_psenergy="-1.080058687105e2" wfc_cutoff="2.686500000000e1" rho_cutoff="0.000000000000e0" l_max="2" l_max_rho="0" l_local="0" mesh_size="1199" number_of_wfc="6" number_of_proj="6"/>
<PP_MESH dx="1.250000000000e-2" mesh="1199" xmin="-6.999999999999e0" rmax="1.002537197280e2" zmesh="2.900000000000e1">
<PP_R>
3.144420570880000e-5 3.183972512650000e-5 3.224021956610001e-5 3.264575160560001e-5
3.305638461010000e-5 3.347218274210000e-5 3.389321097060000e-5 3.431953508239999e-5
3.475122169130000e-5 3.518833824940000e-5 3.563095305680000e-5 3.607913527320000e-5
3.653295492780000e-5 3.699248293100000e-5 3.745779108500000e-5 3.792895209490000e-5
3.840603958090000e-5 3.888912808860001e-5 3.937829310170000e-5 3.987361105320000e-5
4.037515933760000e-5 4.088301632280000e-5 4.139726136250000e-5 4.191797480840000e-5
4.244523802320000e-5 4.297913339280001e-5 4.351974433950000e-5 4.406715533470001e-5
4.462145191260000e-5 4.518272068320000e-5 4.575104934580000e-5 4.632652670290000e-5
4.690924267410001e-5 4.749928830980000e-5 4.809675580610000e-5 4.870173851820001e-5
4.931433097609999e-5 4.993462889860000e-5 5.056272920840001e-5 5.119873004750000e-5
5.184273079230000e-5 5.249483206929999e-5 5.315513577070000e-5 5.382374507009999e-5
5.450076443920000e-5 5.518629966360001e-5 5.588045785959999e-5 5.658334749090001e-5
5.729507838530000e-5 5.801576175230000e-5 5.874551020010000e-5 5.948443775339999e-5
6.023265987109999e-5 6.099029346440000e-5 6.175745691519998e-5 6.253427009430000e-5
6.332085438029999e-5 6.411733267859999e-5 6.492382944069998e-5 6.574047068310001e-5
6.656738400789999e-5 6.740469862179999e-5 6.825254535699999e-5 6.911105669130001e-5
6.998036676880000e-5 7.086061142100000e-5 7.175192818790000e-5 7.265445633960001e-5
7.356833689789999e-5 7.449371265840000e-5 7.543072821320001e-5 7.637952997270001e-5
7.734026618919999e-5 7.831308697960003e-5 7.929814434910001e-5 8.029559221509999e-5
8.130558643069998e-5 8.232828480959999e-5 8.336384715050000e-5 8.441243526209998e-5
8.547421298850001e-5 8.654934623450000e-5 8.763800299200000e-5 8.874035336580000e-5
8.985656960030003e-5 9.098682610660001e-5 9.213129948960002e-5 9.329016857559999e-5
9.446361444030000e-5 9.565182043690001e-5 9.685497222500000e-5 9.807325779959999e-5
9.930686752030001e-5 1.005559941410000e-4 1.018208328400000e-4 1.031015812520000e-4
1.043984394960000e-4 1.057116102080000e-4 1.070412985740000e-4 1.083877123610000e-4
1.097510619490000e-4 1.111315603630000e-4 1.125294233100000e-4 1.139448692080000e-4
1.153781192230000e-4 1.168293973050000e-4 1.182989302170000e-4 1.197869475780000e-4
1.212936818940000e-4 1.228193685930000e-4 1.243642460700000e-4 1.259285557120000e-4
1.275125419480000e-4 1.291164522770000e-4 1.307405373150000e-4 1.323850508280000e-4
1.340502497750000e-4 1.357363943460000e-4 1.374437480040000e-4 1.391725775280000e-4
1.409231530500000e-4 1.426957481020000e-4 1.444906396550000e-4 1.463081081640000e-4
1.481484376120000e-4 1.500119155550000e-4 1.518988331660000e-4 1.538094852780000e-4
1.557441704350000e-4 1.577031909350000e-4 1.596868528800000e-4 1.616954662210000e-4
1.637293448070000e-4 1.657888064370000e-4 1.678741729040000e-4 1.699857700530000e-4
1.721239278240000e-4 1.742889803100000e-4 1.764812658030000e-4 1.787011268520000e-4
1.809489103170000e-4 1.832249674160000e-4 1.855296537900000e-4 1.878633295500000e-4
1.902263593370000e-4 1.926191123790000e-4 1.950419625500000e-4 1.974952884240000e-4
1.999794733390000e-4 2.024949054540000e-4 2.050419778090000e-4 2.076210883910000e-4
2.102326401900001e-4 2.128770412670000e-4 2.155547048150000e-4 2.182660492240000e-4
2.210114981470000e-4 2.237914805660000e-4 2.266064308600000e-4 2.294567888690000e-4
2.323429999680000e-4 2.352655151340000e-4 2.382247910160000e-4 2.412212900050000e-4
2.442554803120000e-4 2.473278360350000e-4 2.504388372350000e-4 2.535889700130000e-4
2.567787265840000e-4 2.600086053530000e-4 2.632791109950000e-4 2.665907545340001e-4
2.699440534219999e-4 2.733395316160000e-4 2.767777196690000e-4 2.802591548030000e-4
2.837843810010000e-4 2.873539490850000e-4 2.909684168090000e-4 2.946283489390000e-4
2.983343173490000e-4 3.020869011030000e-4 3.058866865490000e-4 3.097342674130000e-4
3.136302448860000e-4 3.175752277230001e-4 3.215698323350000e-4 3.256146828880000e-4
3.297104113980001e-4 3.338576578300001e-4 3.380570702010000e-4 3.423093046760000e-4
3.466150256770000e-4 3.509749059810000e-4 3.553896268279999e-4 3.598598780270001e-4
3.643863580640000e-4 3.689697742110000e-4 3.736108426360000e-4 3.783102885150000e-4
3.830688461460000e-4 3.878872590640000e-4 3.927662801560000e-4 3.977066717770001e-4
4.027092058760000e-4 4.077746641070000e-4 4.129038379590000e-4 4.180975288750000e-4
4.233565483820001e-4 4.286817182100000e-4 4.340738704289999e-4 4.395338475730000e-4
4.450625027750000e-4 4.506606998990000e-4 4.563293136740000e-4 4.620692298320000e-4
4.678813452480001e-4 4.737665680760000e-4 4.797258178940000e-4 4.857600258480001e-4
4.918701347930000e-4 4.980570994479999e-4 5.043218865379999e-4 5.106654749480000e-4
5.170888558790000e-4 5.235930329940000e-4 5.301790225870000e-4 5.368478537300000e-4
5.436005684430000e-4 5.504382218510000e-4 5.573618823510000e-4 5.643726317780001e-4
5.714715655779999e-4 5.786597929720001e-4 5.859384371370000e-4 5.933086353740000e-4
6.007715392930000e-4 6.083283149870001e-4 6.159801432180000e-4 6.237282195990001e-4
6.315737547840000e-4 6.395179746529999e-4 6.475621205060000e-4 6.557074492589999e-4
6.639552336340000e-4 6.723067623650001e-4 6.807633403960001e-4 6.893262890839999e-4
6.979969464069999e-4 7.067766671730000e-4 7.156668232309999e-4 7.246688036859999e-4
7.337840151160001e-4 7.430138817920000e-4 7.523598458980000e-4 7.618233677610000e-4
7.714059260749999e-4 7.811090181339999e-4 7.909341600670000e-4 8.008828870709999e-4
8.109567536549999e-4 8.211573338830000e-4 8.314862216140002e-4 8.419450307599998e-4
8.525353955290001e-4 8.632589706880001e-4 8.741174318180001e-4 8.851124755750000e-4
8.962458199570001e-4 9.075192045720000e-4 9.189343909089999e-4 9.304931626140000e-4
9.421973257689999e-4 9.540487091730000e-4 9.660491646280001e-4 9.782005672310001e-4
9.905048156630000e-4 1.002963832490000e-3 1.015579564450000e-3 1.028353982790000e-3
1.041289083530000e-3 1.054386887810000e-3 1.067649442180000e-3 1.081078818950000e-3
1.094677116490000e-3 1.108446459550000e-3 1.122388999620000e-3 1.136506915270000e-3
1.150802412430000e-3 1.165277724800000e-3 1.179935114200000e-3 1.194776870850000e-3
1.209805313820000e-3 1.225022791340000e-3 1.240431681150000e-3 1.256034390940000e-3
1.271833358660000e-3 1.287831052930000e-3 1.304029973430000e-3 1.320432651250000e-3
1.337041649370000e-3 1.353859562960000e-3 1.370889019870000e-3 1.388132680970000e-3
1.405593240630000e-3 1.423273427100000e-3 1.441176002930000e-3 1.459303765440000e-3
1.477659547140000e-3 1.496246216150000e-3 1.515066676670000e-3 1.534123869440000e-3
1.553420772190000e-3 1.572960400100000e-3 1.592745806260000e-3 1.612780082210000e-3
1.633066358320000e-3 1.653607804370000e-3 1.674407630000000e-3 1.695469085230000e-3
1.716795460960000e-3 1.738390089470000e-3 1.760256344970000e-3 1.782397644110000e-3
1.804817446500000e-3 1.827519255290000e-3 1.850506617680000e-3 1.873783125500000e-3
1.897352415740000e-3 1.921218171160000e-3 1.945384120820000e-3 1.969854040710000e-3
1.994631754300000e-3 2.019721133170000e-3 2.045126097570000e-3 2.070850617080000e-3
2.096898711210000e-3 2.123274450040000e-3 2.149981954820000e-3 2.177025398650001e-3
2.204409007130001e-3 2.232137059000000e-3 2.260213886830000e-3 2.288643877680000e-3
2.317431473780000e-3 2.346581173280000e-3 2.376097530850000e-3 2.405985158500000e-3
2.436248726220000e-3 2.466892962770000e-3 2.497922656350000e-3 2.529342655440000e-3
2.561157869460000e-3 2.593373269610000e-3 2.625993889610000e-3 2.659024826490000e-3
2.692471241420000e-3 2.726338360450000e-3 2.760631475400000e-3 2.795355944640000e-3
2.830517193930000e-3 2.866120717290000e-3 2.902172077840000e-3 2.938676908680000e-3
2.975640913770000e-3 3.013069868810000e-3 3.050969622139999e-3 3.089346095680000e-3
3.128205285840000e-3 3.167553264440000e-3 3.207396179680000e-3 3.247740257100000e-3
3.288591800540000e-3 3.329957193139999e-3 3.371842898320000e-3 3.414255460819999e-3
3.457201507680000e-3 3.500687749310000e-3 3.544720980530000e-3 3.589308081610000e-3
3.634456019370000e-3 3.680171848290001e-3 3.726462711550000e-3 3.773335842180000e-3
3.820798564220000e-3 3.868858293800001e-3 3.917522540370000e-3 3.966798907800000e-3
4.016695095640000e-3 4.067218900249999e-3 4.118378216089999e-3 4.170181036909999e-3
4.222635457000000e-3 4.275749672470000e-3 4.329531982520001e-3 4.383990790760000e-3
4.439134606480000e-3 4.494972046010001e-3 4.551511834060000e-3 4.608762805100000e-3
4.666733904710000e-3 4.725434190980000e-3 4.784872835960000e-3 4.845059127060000e-3
4.906002468499999e-3 4.967712382809999e-3 5.030198512280000e-3 5.093470620510000e-3
5.157538593880000e-3 5.222412443160001e-3 5.288102305000000e-3 5.354618443580001e-3
5.421971252190000e-3 5.490171254840000e-3 5.559229107919999e-3 5.629155601860000e-3
5.699961662810001e-3 5.771658354370000e-3 5.844256879290000e-3 5.917768581240001e-3
5.992204946570000e-3 6.067577606110000e-3 6.143898337000000e-3 6.221179064499999e-3
6.299431863890000e-3 6.378668962320000e-3 6.458902740759999e-3 6.540145735890000e-3
6.622410642089999e-3 6.705710313440000e-3 6.790057765660000e-3 6.875466178230000e-3
6.961948896370000e-3 7.049519433190000e-3 7.138191471760001e-3 7.227978867279999e-3
7.318895649199999e-3 7.410956023450001e-3 7.504174374660000e-3 7.598565268390001e-3
7.694143453390000e-3 7.790923863970000e-3 7.888921622250001e-3 7.988152040579999e-3
8.088630623920000e-3 8.190373072260002e-3 8.293395283050000e-3 8.397713353720000e-3
8.503343584189999e-3 8.610302479400001e-3 8.718606751890000e-3 8.828273324420001e-3
8.939319332620000e-3 9.051762127649999e-3 9.165619278930002e-3 9.280908576870001e-3
9.397648035660000e-3 9.515855896070001e-3 9.635550628320001e-3 9.756750934970000e-3
9.879475753800000e-3 1.000374426080000e-2 1.012957587320000e-2 1.025699025250000e-2
1.038600730730000e-2 1.051664719690000e-2 1.064893033410000e-2 1.078287738820000e-2
1.091850928890000e-2 1.105584722890000e-2 1.119491266750000e-2 1.133572733400000e-2
1.147831323100000e-2 1.162269263770000e-2 1.176888811380000e-2 1.191692250270000e-2
1.206681893490000e-2 1.221860083210000e-2 1.237229191060000e-2 1.252791618480000e-2
1.268549797140000e-2 1.284506189290000e-2 1.300663288150000e-2 1.317023618290000e-2
1.333589736050000e-2 1.350364229920000e-2 1.367349720950000e-2 1.384548863150000e-2
1.401964343930000e-2 1.419598884490000e-2 1.437455240270000e-2 1.455536201350000e-2
1.473844592930000e-2 1.492383275720000e-2 1.511155146430000e-2 1.530163138210000e-2
1.549410221090000e-2 1.568899402480000e-2 1.588633727580000e-2 1.608616279940000e-2
1.628850181870000e-2 1.649338594950000e-2 1.670084720540000e-2 1.691091800260000e-2
1.712363116520000e-2 1.733901993000000e-2 1.755711795200000e-2 1.777795930930000e-2
1.800157850900000e-2 1.822801049190000e-2 1.845729063860000e-2 1.868945477450000e-2
1.892453917570000e-2 1.916258057460000e-2 1.940361616580000e-2 1.964768361140000e-2
1.989482104760000e-2 2.014506709010000e-2 2.039846084020000e-2 2.065504189140000e-2
2.091485033490000e-2 2.117792676630000e-2 2.144431229190000e-2 2.171404853490000e-2
2.198717764210000e-2 2.226374229060000e-2 2.254378569410000e-2 2.282735161000000e-2
2.311448434610000e-2 2.340522876730000e-2 2.369963030310000e-2 2.399773495440000e-2
2.429958930060000e-2 2.460524050710000e-2 2.491473633250000e-2 2.522812513610000e-2
2.554545588560000e-2 2.586677816450000e-2 2.619214218020000e-2 2.652159877130000e-2
2.685519941630000e-2 2.719299624070000e-2 2.753504202620000e-2 2.788139021800000e-2
2.823209493370000e-2 2.858721097170000e-2 2.894679381960001e-2 2.931089966290000e-2
2.967958539400000e-2 3.005290862060000e-2 3.043092767530000e-2 3.081370162440000e-2
3.120129027710000e-2 3.159375419490000e-2 3.199115470100000e-2 3.239355389010000e-2
3.280101463800000e-2 3.321360061110000e-2 3.363137627680000e-2 3.405440691360000e-2
3.448275862070000e-2 3.491649832900000e-2 3.535569381119999e-2 3.580041369250000e-2
3.625072746120000e-2 3.670670547990000e-2 3.716841899599999e-2 3.763594015320000e-2
3.810934200260000e-2 3.858869851420000e-2 3.907408458850000e-2 3.956557606800000e-2
4.006324974930000e-2 4.056718339480000e-2 4.107745574530000e-2 4.159414653180000e-2
4.211733648830000e-2 4.264710736430001e-2 4.318354193770000e-2 4.372672402729999e-2
4.427673850650000e-2 4.483367131620001e-2 4.539760947820000e-2 4.596864110909999e-2
4.654685543369999e-2 4.713234279910000e-2 4.772519468900000e-2 4.832550373770000e-2
4.893336374460000e-2 4.954886968919999e-2 5.017211774550000e-2 5.080320529720000e-2
5.144223095310000e-2 5.208929456230001e-2 5.274449722980000e-2 5.340794133219999e-2
5.407973053410000e-2 5.475996980400000e-2 5.544876543050000e-2 5.614622503950000e-2
5.685245761030000e-2 5.756757349340001e-2 5.829168442690000e-2 5.902490355470000e-2
5.976734544370000e-2 6.051912610210000e-2 6.128036299700001e-2 6.205117507340000e-2
6.283168277210000e-2 6.362200804910000e-2 6.442227439420000e-2 6.523260685080000e-2
6.605313203500001e-2 6.688397815539999e-2 6.772527503340000e-2 6.857715412350000e-2
6.943974853350000e-2 7.031319304540000e-2 7.119762413680000e-2 7.209318000180000e-2
7.300000057290000e-2 7.391822754250001e-2 7.484800438560001e-2 7.578947638170000e-2
7.674279063769999e-2 7.770809611080000e-2 7.868554363199999e-2 7.967528592960001e-2
8.067747765260000e-2 8.169227539570000e-2 8.271983772300000e-2 8.376032519330000e-2
8.481390038470000e-2 8.588072792070001e-2 8.696097449509999e-2 8.805480889869999e-2
8.916240204539999e-2 9.028392699870000e-2 9.141955899940001e-2 9.256947549210000e-2
9.373385615380002e-2 9.491288292110001e-2 9.610674001949999e-2 9.731561399160000e-2
9.853969372630001e-2 9.977917048869999e-2 1.010342379490000e-1 1.023050922150000e-1
1.035919318600000e-1 1.048949579550000e-1 1.062143741010000e-1 1.075503864580000e-1
1.089032037820000e-1 1.102730374540000e-1 1.116601015120000e-1 1.130646126880000e-1
1.144867904390000e-1 1.159268569850000e-1 1.173850373380000e-1 1.188615593410000e-1
1.203566537060000e-1 1.218705540420000e-1 1.234034969000000e-1 1.249557218060000e-1
1.265274712970000e-1 1.281189909630000e-1 1.297305294830000e-1 1.313623386610000e-1
1.330146734720000e-1 1.346877920970000e-1 1.363819559630000e-1 1.380974297870000e-1
1.398344816150000e-1 1.415933828660000e-1 1.433744083710000e-1 1.451778364190000e-1
1.470039487990000e-1 1.488530308450000e-1 1.507253714800000e-1 1.526212632610000e-1
1.545410024250000e-1 1.564848889360000e-1 1.584532265280000e-1 1.604463227590000e-1
1.624644890550000e-1 1.645080407580000e-1 1.665772971760000e-1 1.686725816370000e-1
1.707942215310000e-1 1.729425483700000e-1 1.751178978340000e-1 1.773206098260000e-1
1.795510285230000e-1 1.818095024350000e-1 1.840963844510000e-1 1.864120319010000e-1
1.887568066110000e-1 1.911310749560000e-1 1.935352079200000e-1 1.959695811550000e-1
1.984345750350000e-1 2.009305747210000e-1 2.034579702180000e-1 2.060171564370000e-1
2.086085332560000e-1 2.112325055820000e-1 2.138894834170000e-1 2.165798819200000e-1
2.193041214690000e-1 2.220626277340000e-1 2.248558317360000e-1 2.276841699190000e-1
2.305480842170000e-1 2.334480221220000e-1 2.363844367550000e-1 2.393577869380000e-1
2.423685372620000e-1 2.454171581630000e-1 2.485041259940000e-1 2.516299231000000e-1
2.547950378940000e-1 2.579999649310000e-1 2.612452049870000e-1 2.645312651390000e-1
2.678586588380000e-1 2.712279059980000e-1 2.746395330700000e-1 2.780940731280000e-1
2.815920659510000e-1 2.851340581060000e-1 2.887206030390000e-1 2.923522611530000e-1
2.960295999030000e-1 2.997531938800000e-1 3.035236249030000e-1 3.073414821100000e-1
3.112073620490000e-1 3.151218687720000e-1 3.190856139280000e-1 3.230992168600000e-1
3.271633047020000e-1 3.312785124760000e-1 3.354454831920000e-1 3.396648679470000e-1
3.439373260280000e-1 3.482635250170000e-1 3.526441408890000e-1 3.570798581270000e-1
3.615713698180000e-1 3.661193777720000e-1 3.707245926230000e-1 3.753877339470000e-1
3.801095303670000e-1 3.848907196750000e-1 3.897320489410000e-1 3.946342746320000e-1
3.995981627320000e-1 4.046244888570000e-1 4.097140383830000e-1 4.148676065600000e-1
4.200859986450000e-1 4.253700300220000e-1 4.307205263310000e-1 4.361383235990000e-1
4.416242683680000e-1 4.471792178270000e-1 4.528040399480000e-1 4.584996136220000e-1
4.642668287930000e-1 4.701065866010000e-1 4.760197995200000e-1 4.820073915000000e-1
4.880702981160000e-1 4.942094667100000e-1 5.004258565380000e-1 5.067204389240000e-1
5.130941974090000e-1 5.195481279070000e-1 5.260832388570000e-1 5.327005513840000e-1
5.394010994550000e-1 5.461859300450000e-1 5.530561032980001e-1 5.600126926930001e-1
5.670567852100000e-1 5.741894815039999e-1 5.814118960719999e-1 5.887251574320000e-1
5.961304082950000e-1 6.036288057480000e-1 6.112215214300000e-1 6.189097417179999e-1
6.266946679120000e-1 6.345775164230000e-1 6.425595189620000e-1 6.506419227330000e-1
6.588259906290000e-1 6.671130014260001e-1 6.755042499860000e-1 6.840010474600000e-1
6.926047214890000e-1 7.013166164150000e-1 7.101380934900000e-1 7.190705310860000e-1
7.281153249150000e-1 7.372738882460000e-1 7.465476521210000e-1 7.559380655860000e-1
7.654465959120000e-1 7.750747288249999e-1 7.848239687420000e-1 7.946958390010001e-1
8.046918821009999e-1 8.148136599459999e-1 8.250627540820000e-1 8.354407659520000e-1
8.459493171420000e-1 8.565900496330000e-1 8.673646260630001e-1 8.782747299800000e-1
8.893220661099999e-1 9.005083606230000e-1 9.118353613989999e-1 9.233048383050001e-1
9.349185834709999e-1 9.466784115679999e-1 9.585861600920001e-1 9.706436896540001e-1
9.828528842680001e-1 9.952156516440001e-1 1.007733923490000e0 1.020409655810000e0
1.033244829220000e0 1.046241449230000e0 1.059401546600000e0 1.072727177620000e0
1.086220424440000e0 1.099883395410000e0 1.113718225400000e0 1.127727076130000e0
1.141912136510000e0 1.156275622980000e0 1.170819779870000e0 1.185546879730000e0
1.200459223710000e0 1.215559141880000e0 1.230848993640000e0 1.246331168060000e0
1.262008084260000e0 1.277882191800000e0 1.293955971020000e0 1.310231933500000e0
1.326712622380000e0 1.343400612810000e0 1.360298512320000e0 1.377408961240000e0
1.394734633110000e0 1.412278235100000e0 1.430042508440000e0 1.448030228840000e0
1.466244206900000e0 1.484687288600000e0 1.503362355710000e0 1.522272326250000e0
1.541420154940000e0 1.560808833660000e0 1.580441391940000e0 1.600320897400000e0
1.620450456260000e0 1.640833213800000e0 1.661472354870000e0 1.682371104370000e0
1.703532727780000e0 1.724960531640000e0 1.746657864100000e0 1.768628115400000e0
1.790874718440000e0 1.813401149300000e0 1.836210927780000e0 1.859307617960000e0
1.882694828730000e0 1.906376214400000e0 1.930355475230000e0 1.954636358030000e0
1.979222656740000e0 2.004118213020000e0 2.029326916840000e0 2.054852707120000e0
2.080699572320000e0 2.106871551060000e0 2.133372732770000e0 2.160207258310000e0
2.187379320620000e0 2.214893165410000e0 2.242753091760000e0 2.270963452840000e0
2.299528656580000e0 2.328453166360000e0 2.357741501670000e0 2.387398238900000e0
2.417428011950000e0 2.447835513060000e0 2.478625493440000e0 2.509802764090000e0
2.541372196540000e0 2.573338723560000e0 2.605707339990000e0 2.638483103500000e0
2.671671135350000e0 2.705276621260000e0 2.739304812150000e0 2.773761024980000e0
2.808650643620000e0 2.843979119630000e0 2.879751973170000e0 2.915974793820000e0
2.952653241460000e0 2.989793047170000e0 3.027400014130000e0 3.065480018500000e0
3.104039010360000e0 3.143083014630000e0 3.182618132020000e0 3.222650539970000e0
3.263186493620000e0 3.304232326800000e0 3.345794453000000e0 3.387879366390000e0
3.430493642830000e0 3.473643940870000e0 3.517337002850000e0 3.561579655890000e0
3.606378813000000e0 3.651741474140000e0 3.697674727310000e0 3.744185749680000e0
3.791281808690000e0 3.838970263200000e0 3.887258564620000e0 3.936154258100000e0
3.985664983700000e0 4.035798477550000e0 4.086562573130000e0 4.137965202420000e0
4.190014397200000e0 4.242718290250000e0 4.296085116660000e0 4.350123215120000e0
4.404841029170000e0 4.460247108600000e0 4.516350110720000e0 4.573158801730000e0
4.630682058100000e0 4.688928867970000e0 4.747908332510000e0 4.807629667390000e0
4.868102204190000e0 4.929335391860000e0 4.991338798210000e0 5.054122111410000e0
5.117695141470000e0 5.182067821800000e0 5.247250210780000e0 5.313252493280000e0
5.380084982290000e0 5.447758120520000e0 5.516282482050000e0 5.585668773930000e0
5.655927837930000e0 5.727070652150000e0 5.799108332820000e0 5.872052135970000e0
5.945913459200000e0 6.020703843510000e0 6.096434975050000e0 6.173118686950000e0
6.250766961210000e0 6.329391930530000e0 6.409005880210000e0 6.489621250090000e0
6.571250636500000e0 6.653906794200000e0 6.737602638360000e0 6.822351246650000e0
6.908165861200000e0 6.995059890720000e0 7.083046912580000e0 7.172140674930000e0
7.262355098850000e0 7.353704280530000e0 7.446202493470000e0 7.539864190700000e0
7.634704007040000e0 7.730736761420000e0 7.827977459150000e0 7.926441294280000e0
8.026143651989999e0 8.127100110970000e0 8.229326445880000e0 8.332838629799999e0
8.437652836700000e0 8.543785444019999e0 8.651253035200000e0 8.760072402270000e0
8.870260548470000e0 8.981834690940000e0 9.094812263340000e0 9.209210918669999e0
9.325048531940000e0 9.442343203009999e0 9.561113259420001e0 9.681377259230000e0
9.803153993930000e0 9.926462491390000e0 1.005132201880000e1 1.017775208570000e1
1.030577244710000e1 1.043540310650000e1 1.056666431870000e1 1.069957659380000e1
1.083416069950000e1 1.097043766480000e1 1.110842878340000e1 1.124815561650000e1
1.138963999690000e1 1.153290403170000e1 1.167797010610000e1 1.182486088720000e1
1.197359932690000e1 1.212420866580000e1 1.227671243690000e1 1.243113446940000e1
1.258749889190000e1 1.274583013670000e1 1.290615294350000e1 1.306849236280000e1
1.323287376070000e1 1.339932282210000e1 1.356786555490000e1 1.373852829430000e1
1.391133770660000e1 1.408632079390000e1 1.426350489730000e1 1.444291770250000e1
1.462458724290000e1 1.480854190490000e1 1.499481043160000e1 1.518342192800000e1
1.537440586490000e1 1.556779208410000e1 1.576361080240000e1 1.596189261700000e1
1.616266850970000e1 1.636596985240000e1 1.657182841110000e1 1.678027635170000e1
1.699134624460000e1 1.720507106990000e1 1.742148422260000e1 1.764061951770000e1
1.786251119550000e1 1.808719392690000e1 1.831470281920000e1 1.854507342110000e1
1.877834172850000e1 1.901454418990000e1 1.925371771260000e1 1.949589966780000e1
1.974112789700000e1 1.998944071760000e1 2.024087692900000e1 2.049547581860000e1
2.075327716800000e1 2.101432125920000e1 2.127864888080000e1 2.154630133460000e1
2.181732044180000e1 2.209174854970000e1 2.236962853830000e1 2.265100382690000e1
2.293591838080000e1 2.322441671870000e1 2.351654391900000e1 2.381234562710000e1
2.411186806260000e1 2.441515802660000e1 2.472226290870000e1 2.503323069470000e1
2.534810997390000e1 2.566694994680000e1 2.598980043290000e1 2.631671187820000e1
2.664773536330000e1 2.698292261120000e1 2.732232599570001e1 2.766599854920000e1
2.801399397130000e1 2.836636663690000e1 2.872317160500000e1 2.908446462720000e1
2.945030215610000e1 2.982074135460000e1 3.019584010460000e1 3.057565701610000e1
3.096025143620000e1 3.134968345860000e1 3.174401393280000e1 3.214330447380000e1
3.254761747140000e1 3.295701610060000e1 3.337156433050000e1 3.379132693530000e1
3.421636950360000e1 3.464675844930000e1 3.508256102150000e1 3.552384531520000e1
3.597068028210000e1 3.642313574090000e1 3.688128238880001e1 3.734519181200000e1
3.781493649750000e1 3.829058984380000e1 3.877222617260000e1 3.925992074060000e1
3.975374975120000e1 4.025379036600000e1 4.076012071740000e1 4.127281992060000e1
4.179196808600000e1 4.231764633130000e1 4.284993679500000e1 4.338892264850000e1
4.393468810940000e1 4.448731845480000e1 4.504690003410000e1 4.561352028330000e1
4.618726773770000e1 4.676823204680001e1 4.735650398720000e1 4.795217547780000e1
4.855533959330000e1 4.916609057940001e1 4.978452386720001e1 5.041073608810001e1
5.104482508910000e1 5.168688994790000e1 5.233703098840000e1 5.299534979650001e1
5.366194923580000e1 5.433693346380000e1 5.502040794820001e1 5.571247948340001e1
5.641325620680000e1 5.712284761620000e1 5.784136458680000e1 5.856891938830000e1
5.930562570260000e1 6.005159864160000e1 6.080695476510001e1 6.157181209890000e1
6.234629015370000e1 6.313050994310000e1 6.392459400310000e1 6.472866641110000e1
6.554285280480001e1 6.636728040270000e1 6.720207802310000e1 6.804737610490000e1
6.890330672770000e1 6.977000363240001e1 7.064760224210001e1 7.153623968330000e1
7.243605480760000e1 7.334718821280001e1 7.426978226540000e1 7.520398112250000e1
7.614993075470000e1 7.710777896860001e1 7.807767542970000e1 7.905977168650001e1
8.005422119349999e1 8.106117933540000e1 8.208080345150000e1 8.311325286010002e1
8.415868888360000e1 8.521727487340000e1 8.628917623590000e1 8.737456045760000e1
8.847359713219999e1 8.958645798640001e1 9.071331690690000e1 9.185434996770001e1
9.300973545750001e1 9.417965390780001e1 9.536428812060000e1 9.656382319740000e1
9.777844656810000e1 9.900834802000000e1 1.002537197280000e2
</PP_R>
<PP_RAB>
3.930525713600000e-7 3.979965640810001e-7 4.030027445760000e-7 4.080718950700001e-7
4.132048076270000e-7 4.184022842759999e-7 4.236651371330000e-7 4.289941885299999e-7
4.343902711420000e-7 4.398542281170001e-7 4.453869132100000e-7 4.509891909150000e-7
4.566619365980001e-7 4.624060366380000e-7 4.682223885620001e-7 4.741119011870000e-7
4.800754947610001e-7 4.861141011070000e-7 4.922286637709999e-7 4.984201381659999e-7
5.046894917200001e-7 5.110377040350000e-7 5.174657670309999e-7 5.239746851049999e-7
5.305654752900001e-7 5.372391674099999e-7 5.439968042430001e-7 5.508394416840000e-7
5.577681489080000e-7 5.647840085400000e-7 5.718881168220000e-7 5.790815837859999e-7
5.863655334260001e-7 5.937411038730001e-7 6.012094475760001e-7 6.087717314780000e-7
6.164291372019999e-7 6.241828612319999e-7 6.320341151050001e-7 6.399841255940000e-7
6.480341349040000e-7 6.561854008670000e-7 6.644391971330000e-7 6.727968133759999e-7
6.812595554900001e-7 6.898287457949999e-7 6.985057232449999e-7 7.072918436359999e-7
7.161884798160001e-7 7.251970219039999e-7 7.343188775010000e-7 7.435554719170000e-7
7.529082483880000e-7 7.623786683050000e-7 7.719682114399998e-7 7.816783761790001e-7
7.915106797540000e-7 8.014666584830000e-7 8.115478680080001e-7 8.217558835389999e-7
8.320923000980001e-7 8.425587327720001e-7 8.531568169629999e-7 8.638882086410003e-7
8.747545846100000e-7 8.857576427629999e-7 8.968991023489998e-7 9.081807042449999e-7
9.196042112229998e-7 9.311714082309999e-7 9.428841026650002e-7 9.547441246590001e-7
9.667533273649999e-7 9.789135872450004e-7 9.912268043640003e-7 1.003694902690000e-6
1.016319830380000e-6 1.029103560120000e-6 1.042048089380000e-6 1.055155440780000e-6
1.068427662360000e-6 1.081866827930000e-6 1.095475037400000e-6 1.109254417070000e-6
1.123207120000000e-6 1.137335326330000e-6 1.151641243620000e-6 1.166127107200000e-6
1.180795180500000e-6 1.195647755460000e-6 1.210687152810000e-6 1.225915722500000e-6
1.241335844000000e-6 1.256949926760000e-6 1.272760410510000e-6 1.288769765650000e-6
1.304980493700000e-6 1.321395127600000e-6 1.338016232180000e-6 1.354846404510000e-6
1.371888274360000e-6 1.389144504540000e-6 1.406617791370000e-6 1.424310865090000e-6
1.442226490290000e-6 1.460367466310000e-6 1.478736627710000e-6 1.497336844730000e-6
1.516171023670000e-6 1.535242107420000e-6 1.554553075870000e-6 1.574106946400000e-6
1.593906774350000e-6 1.613955653470000e-6 1.634256716440000e-6 1.654813135360000e-6
1.675628122190000e-6 1.696704929320000e-6 1.718046850060000e-6 1.739657219100000e-6
1.761539413130000e-6 1.783696851280000e-6 1.806132995680000e-6 1.828851352050000e-6
1.851855470150000e-6 1.875148944440000e-6 1.898735414570000e-6 1.922618565970000e-6
1.946802130440000e-6 1.971289886690000e-6 1.996085661010000e-6 2.021193327760000e-6
2.046616810090000e-6 2.072360080460000e-6 2.098427161310000e-6 2.124822125670000e-6
2.151549097810000e-6 2.178612253870000e-6 2.206015822530000e-6 2.233764085650000e-6
2.261861378960000e-6 2.290312092700000e-6 2.319120672380000e-6 2.348291619370000e-6
2.377829491710000e-6 2.407738904740000e-6 2.438024531880000e-6 2.468691105310000e-6
2.499743416739999e-6 2.531186318170000e-6 2.563024722620000e-6 2.595263604890000e-6
2.627908002380001e-6 2.660963015840000e-6 2.694433810180000e-6 2.728325615300000e-6
2.762643726830000e-6 2.797393507080000e-6 2.832580385749999e-6 2.868209860860000e-6
2.904287499610001e-6 2.940818939180001e-6 2.977809887700000e-6 3.015266125070000e-6
3.053193503900000e-6 3.091597950430000e-6 3.130485465440000e-6 3.169862125160000e-6