<UPF version="2.0.1">
  <PP_INFO>
    Generated using "atomic" code by A. Dal Corso  v.6.8
    Author: anonymous
    Generation date:  6Dec2021
    Pseudopotential type: PAW
    Element:  F
    Functional:  SLA  PW   PBX  PBC
    Suggested minimum cutoff for wavefunctions:  45. Ry
    Suggested minimum cutoff for charge density: 259. Ry
    The Pseudo was generated with a Non-Relativistic Calculation
    L component and cutoff radius for Local Potential:  2   1.3000
    Pseudopotential contains additional information for GIPAW reconstruction.
    Valence configuration:
    nl pn  l   occ       Rcut    Rcut US       E pseu
    2S  1  0  2.00      1.000      1.450    -2.191713
    2P  2  1  5.00      1.000      1.600    -0.817416
    Generation configuration:
    2S  1  0  2.00      1.000      1.450    -2.191713
    2S  1  0  0.00      1.000      1.450     0.050000
    2P  2  1  5.00      1.000      1.600    -0.817416
    2P  2  1  0.00      1.000      1.600     0.100000
    3D  3  2 -2.00      1.300      1.300     0.150000
    Pseudization used: troullier-martins
    <PP_INPUTFILE>
@input
title='F'
prefix='F',
zed=9,
config='[He] 2s2 2p5 3d-2'
iswitch=3,
dft='PBE'
nld=3,
eminld=-4,
emaxld=4,
deld=0.01d0,
rlderiv=1.65,
/
@inputp
pseudotype=3,
nlcc=.true.,
new_core_ps = .true.
rcore=0.8
lloc=2,
file_pseudopw='F.pbe-gpaw_kj.UPF'
lpaw=.true.
lnc2paw=.false.
which_augfun ='PSQ'
rmatch_augfun= 1.0000
tm=.true.
file_screen='F_ld1.scr'
lgipaw_reconstruction=.true.
!nX n  l   occ   nrg   rmin   rcut
/
5
2S  1  0  2.00  0.00  1.00  1.45
2S  1  0  0.00  0.05  1.00  1.45
2P  2  1  5.00  0.00  1.00  1.60
2P  2  1  0.00  0.10  1.00  1.60
3D  3  2 -2.00  0.15  1.30  1.30
@test
ecutmin = 10
ecutmax = 60
decut=2
/
2
2S  1  0  2.00  0.00  1.00  1.60
2P  2  1  5.00  0.00  1.00  1.60
    </PP_INPUTFILE>
  </PP_INFO>
    <!-- END OF HUMAN READABLE SECTION -->
  <PP_HEADER generated="Generated using 'atomic' code by A. Dal Corso  v.6.8" author="anonymous" date=" 6Dec2021" comment="" element=" F" pseudo_type="PAW" relativistic="no" is_ultrasoft="true" is_paw="true" is_coulomb="false" has_so="false" has_wfc="true" has_gipaw="true" paw_as_gipaw="false" core_correction="true" functional=" SLA  PW   PBX  PBC" z_valence="7.00000000000000" total_psenergy="-59.0313418674748" wfc_cutoff="44.8320174391160" rho_cutoff="259.365350699950" l_max="1" l_max_rho="2" l_local="2" mesh_size="1105" number_of_wfc="2" number_of_proj="4"/>
  <PP_MESH mesh="1105" dx="1.250000000000000E-002" xmin="-7.00000000000000" rmax="100.000000000000" zmesh="9.00000000000000">
    <PP_R>
   1.013202183949463E-04   1.025946698521136E-04   1.038851519351758E-04
   1.051918662845838E-04   1.065150170771133E-04   1.078548110577677E-04
   1.092114575720821E-04   1.105851685988346E-04   1.119761587831678E-04
   1.133846454701283E-04   1.148108487386263E-04   1.162549914358243E-04
   1.177172992119567E-04   1.191980005555885E-04   1.206973268293175E-04
   1.222155123059243E-04   1.237527942049781E-04   1.253094127299036E-04
   1.268856111055120E-04   1.284816356160064E-04   1.300977356434638E-04
   1.317341637068014E-04   1.333911755012334E-04   1.350690299382239E-04
   1.367679891859423E-04   1.384883187102277E-04   1.402302873160683E-04
   1.419941671896027E-04   1.437802339406498E-04   1.455887666457733E-04
   1.474200478918879E-04   1.492743638204141E-04   1.511520041719882E-04
   1.530532623317352E-04   1.549784353751110E-04   1.569278241143202E-04
   1.589017331453194E-04   1.609004708954106E-04   1.629243496714337E-04
   1.649736857085652E-04   1.670487992197303E-04   1.691500144456368E-04
   1.712776597054389E-04   1.734320674480369E-04   1.756135743040241E-04
   1.778225211382849E-04   1.800592531032563E-04   1.823241196928584E-04
   1.846174747971038E-04   1.869396767573935E-04   1.892910884225082E-04
   1.916720772053047E-04   1.940830151401244E-04   1.965242789409245E-04
   1.989962500601411E-04   2.014993147482906E-04   2.040338641143230E-04
   2.066002941867334E-04   2.091990059754419E-04   2.118304055344530E-04
   2.144949040253010E-04   2.171929177812963E-04   2.199248683725774E-04
   2.226911826719821E-04   2.254922929217482E-04   2.283286368010510E-04
   2.312006574943921E-04   2.341088037608482E-04   2.370535300041898E-04
   2.400352963438838E-04   2.430545686869872E-04   2.461118188009463E-04
   2.492075243873115E-04   2.523421691563785E-04   2.555162429027707E-04
   2.587302415819682E-04   2.619846673878036E-04   2.652800288309304E-04
   2.686168408182782E-04   2.719956247335092E-04   2.754169085184843E-04
   2.788812267557554E-04   2.823891207520954E-04   2.859411386230778E-04
   2.895378353787220E-04   2.931797730102135E-04   2.968675205777167E-04
   3.006016542992918E-04   3.043827576409298E-04   3.082114214077210E-04
   3.120882438361681E-04   3.160138306876630E-04   3.199887953431381E-04
   3.240137588989075E-04   3.280893502637163E-04   3.322162062570067E-04
   3.363949717084239E-04   3.406262995585714E-04   3.449108509610343E-04
   3.492492953856867E-04   3.536423107232963E-04   3.580905833914474E-04
   3.625948084417942E-04   3.671556896686647E-04   3.717739397190302E-04
   3.764502802038568E-04   3.811854418108594E-04   3.859801644186726E-04
   3.908351972124587E-04   3.957512988009700E-04   4.007292373350812E-04
   4.057697906278159E-04   4.108737462758813E-04   4.160419017827311E-04
   4.212750646831787E-04   4.265740526695737E-04   4.319396937195700E-04
   4.373728262254981E-04   4.428742991253656E-04   4.484449720355065E-04
   4.540857153848963E-04   4.597974105511597E-04   4.655809499982866E-04
   4.714372374160822E-04   4.773671878613711E-04   4.833717279009743E-04
   4.894517957564896E-04   4.956083414508891E-04   5.018423269569630E-04
   5.081547263476303E-04   5.145465259481384E-04   5.210187244901790E-04
   5.275723332679419E-04   5.342083762961317E-04   5.409278904699737E-04
   5.477319257272280E-04   5.546215452122464E-04   5.615978254420905E-04
   5.686618564747390E-04   5.758147420794139E-04   5.830575999090427E-04
   5.903915616748972E-04   5.978177733234244E-04   6.053373952153028E-04
   6.129516023067524E-04   6.206615843331221E-04   6.284685459947898E-04
   6.363737071453983E-04   6.443783029824601E-04   6.524835842403613E-04
   6.606908173857882E-04   6.690012848156176E-04   6.774162850572931E-04
   6.859371329717224E-04   6.945651599587291E-04   7.033017141650830E-04
   7.121481606951537E-04   7.211058818242097E-04   7.301762772144014E-04
   7.393607641334637E-04   7.486607776761630E-04   7.580777709885364E-04
   7.676132154949481E-04   7.772686011280012E-04   7.870454365613473E-04
   7.969452494454110E-04   8.069695866460990E-04   8.171200144864929E-04
   8.273981189915931E-04   8.378055061361417E-04   8.483438020955513E-04
   8.590146535000079E-04   8.698197276917526E-04   8.807607129856105E-04
   8.918393189327957E-04   9.030572765880234E-04   9.144163387800033E-04
   9.259182803853122E-04   9.375648986057256E-04   9.493580132490386E-04
   9.612994670134037E-04   9.733911257752697E-04   9.856348788809177E-04
   9.980326394416796E-04   1.010586344632869E-03   1.023297955996460E-03
   1.036169459747592E-03   1.049202867084912E-03   1.062400214504834E-03
   1.075763564119744E-03   1.089295003980203E-03   1.102996648401224E-03
   1.116870638292621E-03   1.130919141493541E-03   1.145144353111194E-03
   1.159548495863834E-03   1.174133820428073E-03   1.188902605790547E-03
   1.203857159604017E-03   1.218999818547943E-03   1.234332948693589E-03
   1.249858945873741E-03   1.265580236057042E-03   1.281499275727069E-03
   1.297618552266161E-03   1.313940584344069E-03   1.330467922311514E-03
   1.347203148598678E-03   1.364148878118715E-03   1.381307758676344E-03
   1.398682471381555E-03   1.416275731068563E-03   1.434090286719986E-03
   1.452128921896387E-03   1.470394455171216E-03   1.488889740571203E-03
   1.507617668022326E-03   1.526581163801349E-03   1.545783190993069E-03
   1.565226749953304E-03   1.584914878777695E-03   1.604850653776431E-03
   1.625037189954914E-03   1.645477641500489E-03   1.666175202275302E-03
   1.687133106315327E-03   1.708354628335715E-03   1.729843084242454E-03
   1.751601831650498E-03   1.773634270408403E-03   1.795943843129542E-03
   1.818534035730048E-03   1.841408377973473E-03   1.864570444022329E-03
   1.888023852996565E-03   1.911772269539043E-03   1.935819404388168E-03
   1.960169014957685E-03   1.984824905923782E-03   2.009790929819590E-03
   2.035070987637131E-03   2.060669029436876E-03   2.086589054964934E-03
   2.112835114278028E-03   2.139411308376326E-03   2.166321789844222E-03
   2.193570763499198E-03   2.221162487048825E-03   2.249101271756043E-03
   2.277391483112806E-03   2.306037541522194E-03   2.335043922989115E-03
   2.364415159819686E-03   2.394155841329419E-03   2.424270614560308E-03
   2.454764185006938E-03   2.485641317351734E-03   2.516906836209441E-03
   2.548565626880992E-03   2.580622636116842E-03   2.613082872889901E-03
   2.645951409178209E-03   2.679233380757430E-03   2.712933988003337E-03
   2.747058496704377E-03   2.781612238884461E-03   2.816600613636105E-03
   2.852029087964048E-03   2.887903197639483E-03   2.924228548065035E-03
   2.961010815150609E-03   2.998255746200276E-03   3.035969160810286E-03
   3.074156951778398E-03   3.112825086024647E-03   3.151979605523678E-03
   3.191626628248826E-03   3.231772349128053E-03   3.272423041011921E-03
   3.313585055653745E-03   3.355264824702056E-03   3.397468860705566E-03
   3.440203758130766E-03   3.483476194392321E-03   3.527292930896439E-03
   3.571660814097341E-03   3.616586776567048E-03   3.662077838078596E-03
   3.708141106702898E-03   3.754783779919395E-03   3.802013145740670E-03
   3.849836583851225E-03   3.898261566760560E-03   3.947295660970774E-03
   3.996946528158852E-03   4.047221926373804E-03   4.098129711248890E-03
   4.149677837229069E-03   4.201874358813898E-03   4.254727431816073E-03
   4.308245314635779E-03   4.362436369551091E-03   4.417309064024591E-03
   4.472871972026428E-03   4.529133775374025E-03   4.586103265088616E-03
   4.643789342768880E-03   4.702201021981813E-03   4.761347429671132E-03
   4.821237807583375E-03   4.881881513711935E-03   4.943288023759280E-03
   5.005466932617535E-03   5.068427955867712E-03   5.132180931297792E-03
   5.196735820439887E-03   5.262102710126770E-03   5.328291814067941E-03
   5.395313474445553E-03   5.463178163530398E-03   5.531896485318216E-03
   5.601479177186597E-03   5.671937111572713E-03   5.743281297672157E-03
   5.815522883159153E-03   5.888673155928423E-03   5.962743545858904E-03
   6.037745626599722E-03   6.113691117378584E-03   6.190591884832933E-03
   6.268459944864150E-03   6.347307464515032E-03   6.427146763870943E-03
   6.507990317984840E-03   6.589850758826525E-03   6.672740877256438E-03
   6.756673625024219E-03   6.841662116792471E-03   6.927719632185940E-03
   7.014859617866486E-03   7.103095689634175E-03   7.192441634554728E-03
   7.282911413113818E-03   7.374519161398405E-03   7.467279193305528E-03
   7.561206002778911E-03   7.656314266073621E-03   7.752618844049296E-03
   7.850134784492181E-03   7.948877324466357E-03   8.048861892694607E-03
   8.150104111969127E-03   8.252619801592656E-03   8.356424979850270E-03
   8.461535866512259E-03   8.567968885368524E-03   8.675740666794796E-03
   8.784868050351188E-03   8.895368087413398E-03   9.007258043837027E-03
   9.120555402655422E-03   9.235277866811395E-03   9.351443361923378E-03
   9.469070039086321E-03   9.588176277707833E-03   9.708780688380042E-03
   9.830902115787479E-03   9.954559641651635E-03   1.007977258771251E-02
   1.020656051874765E-02   1.033494324562928E-02   1.046494082841963E-02
   1.059657357950552E-02   1.072986206677210E-02   1.086482711681667E-02
   1.100148981820292E-02   1.113987152475597E-02   1.127999385889901E-02
   1.142187871503183E-02   1.156554826295185E-02   1.171102495131826E-02
   1.185833151115958E-02   1.200749095942548E-02   1.215852660258322E-02
   1.231146204025933E-02   1.246632116892708E-02   1.262312818564042E-02
   1.278190759181471E-02   1.294268419705522E-02   1.310548312303362E-02
   1.327032980741329E-02   1.343725000782408E-02   1.360626980588688E-02
   1.377741561128903E-02   1.395071416591081E-02   1.412619254800395E-02
   1.430387817642269E-02   1.448379881490797E-02   1.466598257642559E-02
   1.485045792755895E-02   1.503725369295697E-02   1.522639905983805E-02
   1.541792358255059E-02   1.561185718719091E-02   1.580823017627930E-02
   1.600707323349481E-02   1.620841742846971E-02   1.641229422164410E-02
   1.661873546918168E-02   1.682777342794741E-02   1.703944076054761E-02
   1.725377054043367E-02   1.747079625706974E-02   1.769055182116559E-02
   1.791307156997521E-02   1.813839027266205E-02   1.836654313573184E-02
   1.859756580853362E-02   1.883149438883002E-02   1.906836542843765E-02
   1.930821593893835E-02   1.955108339746239E-02   1.979700575254428E-02
   2.004602143005232E-02   2.029816933919275E-02   2.055348887858936E-02
   2.081201994243967E-02   2.107380292674837E-02   2.133887873563936E-02
   2.160728878774707E-02   2.187907502268823E-02   2.215427990761502E-02
   2.243294644385061E-02   2.271511817360823E-02   2.300083918679476E-02
   2.329015412789976E-02   2.358310820297145E-02   2.387974718668007E-02
   2.418011742947034E-02   2.448426586480378E-02   2.479224001649220E-02
   2.510408800612343E-02   2.541985856058028E-02   2.573960101965432E-02
   2.606336534375531E-02   2.639120212171757E-02   2.672316257870469E-02
   2.705929858421342E-02   2.739966266017851E-02   2.774430798917930E-02
   2.809328842274961E-02   2.844665848979223E-02   2.880447340509907E-02
   2.916678907797860E-02   2.953366212099186E-02   2.990514985879821E-02
   3.028131033711252E-02   3.066220233177480E-02   3.104788535793416E-02
   3.143841967934811E-02   3.183386631779890E-02   3.223428706262838E-02
   3.263974448039255E-02   3.305030192463786E-02   3.346602354580026E-02
   3.388697430122881E-02   3.431321996533555E-02   3.474482713987265E-02
   3.518186326433927E-02   3.562439662651899E-02   3.607249637314997E-02
   3.652623252072935E-02   3.698567596645329E-02   3.745089849929494E-02
   3.792197281122155E-02   3.839897250855272E-02   3.888197212346171E-02
   3.937104712562098E-02   3.986627393399464E-02   4.036772992877905E-02
   4.087549346349359E-02   4.138964387722367E-02   4.191026150701745E-02
   4.243742770043879E-02   4.297122482827795E-02   4.351173629742211E-02
   4.405904656388811E-02   4.461324114601853E-02   4.517440663784437E-02
   4.574263072261542E-02   4.631800218650093E-02   4.690061093246284E-02
   4.749054799430298E-02   4.808790555088750E-02   4.869277694054995E-02
   4.930525667567554E-02   4.992544045746908E-02   5.055342519090819E-02
   5.118930899988512E-02   5.183319124253874E-02   5.248517252677941E-02
   5.314535472600935E-02   5.381384099504029E-02   5.449073578621182E-02
   5.517614486571221E-02   5.587017533010455E-02   5.657293562306103E-02
   5.728453555230714E-02   5.800508630677960E-02   5.873470047399974E-02
   5.947349205766558E-02   6.022157649546525E-02   6.097907067711407E-02
   6.174609296261908E-02   6.252276320077291E-02   6.330920274788034E-02
   6.410553448672075E-02   6.491188284574845E-02   6.572837381853505E-02
   6.655513498345619E-02   6.739229552362594E-02   6.823998624708200E-02
   6.909833960722449E-02   6.996748972351226E-02   7.084757240241930E-02
   7.173872515865468E-02   7.264108723664971E-02   7.355479963231491E-02
   7.448000511507108E-02   7.541684825015721E-02   7.636547542121913E-02
   7.732603485318246E-02   7.829867663541262E-02   7.928355274516699E-02
   8.028081707134141E-02   8.129062543851576E-02   8.231313563130199E-02
   8.334850741899801E-02   8.439690258055210E-02   8.545848492984123E-02
   8.653342034126721E-02   8.762187677567519E-02   8.872402430659748E-02
   8.984003514682809E-02   9.097008367533138E-02   9.211434646448893E-02
   9.327300230768971E-02   9.444623224726650E-02   9.563421960278425E-02
   9.683714999968428E-02   9.805521139828838E-02   9.928859412316843E-02
   1.005374908928844E-01   1.018020968500976E-01   1.030826095920615E-01
   1.043792292014973E-01   1.056921582778571E-01   1.070216019689802E-01
   1.083677680031481E-01   1.097308667215425E-01   1.111111111111111E-01
   1.125087168378483E-01   1.139239022804922E-01   1.153568885646473E-01
   1.168078995973361E-01   1.182771621019844E-01   1.197649056538480E-01
   1.212713627158836E-01   1.227967686750720E-01   1.243413618791979E-01
   1.259053836740918E-01   1.274890784413414E-01   1.290926936364759E-01
   1.307164798276323E-01   1.323606907347065E-01   1.340255832689979E-01
   1.357114175733522E-01   1.374184570628095E-01   1.391469684657628E-01
   1.408972218656356E-01   1.426694907430824E-01   1.444640520187213E-01
   1.462811860964024E-01   1.481211769070226E-01   1.499843119528893E-01
   1.518708823526440E-01   1.537811828867502E-01   1.557155120435526E-01
   1.576741720659176E-01   1.596574689984584E-01   1.616657127353557E-01
   1.636992170687795E-01   1.657582997379190E-01   1.678432824786304E-01
   1.699544910737089E-01   1.720922554037926E-01   1.742569094989077E-01
   1.764487915906604E-01   1.786682441650871E-01   1.809156140161679E-01
   1.831912523000142E-01   1.854955145897381E-01   1.878287609310102E-01
   1.901913558983184E-01   1.925836686519329E-01   1.950060729955887E-01
   1.974589474348932E-01   1.999426752364677E-01   2.024576444878344E-01
   2.050042481580557E-01   2.075828841591358E-01   2.101939554081967E-01
   2.128378698904330E-01   2.155150407228617E-01   2.182258862188721E-01
   2.209708299535880E-01   2.237503008300530E-01   2.265647331462462E-01
   2.294145666629431E-01   2.323002466724285E-01   2.352222240680750E-01
   2.381809554147955E-01   2.411769030203826E-01   2.442105350077448E-01
   2.472823253880521E-01   2.503927541348009E-01   2.535423072588116E-01
   2.567314768841672E-01   2.599607613251103E-01   2.632306651639046E-01
   2.665416993296776E-01   2.698943811782543E-01   2.732892345729945E-01
   2.767267899666480E-01   2.802075844842389E-01   2.837321620069919E-01
   2.873010732573163E-01   2.909148758848558E-01   2.945741345536231E-01
   2.982794210302303E-01   3.020313142732272E-01   3.058304005235675E-01
   3.096772733962057E-01   3.135725339728555E-01   3.175167908959073E-01
   3.215106604635290E-01   3.255547667259672E-01   3.296497415830520E-01
   3.337962248829369E-01   3.379948645220739E-01   3.422463165464479E-01
   3.465512452540884E-01   3.509103232988632E-01   3.553242317955860E-01
   3.597936604264403E-01   3.643193075487415E-01   3.689018803040612E-01
   3.735420947287145E-01   3.782406758656464E-01   3.829983578777197E-01
   3.878158841624268E-01   3.926940074680526E-01   3.976334900112867E-01
   4.026351035963268E-01   4.076996297354719E-01   4.128278597712338E-01
   4.180205949999905E-01   4.232786467971847E-01   4.286028367441082E-01
   4.339939967562728E-01   4.394529692133975E-01   4.449806070910365E-01
   4.505777740938529E-01   4.562453447905790E-01   4.619842047506679E-01
   4.677952506826622E-01   4.736793905743136E-01   4.796375438344494E-01
   4.856706414366396E-01   4.917796260646597E-01   4.979654522597849E-01
   5.042290865699453E-01   5.105715077007433E-01   5.169937066683854E-01
   5.234966869545272E-01   5.300814646630669E-01   5.367490686789204E-01
   5.435005408287785E-01   5.503369360439014E-01   5.572593225249514E-01
   5.642687819088980E-01   5.713664094380324E-01   5.785533141310945E-01
   5.858306189565655E-01   5.931994610081310E-01   6.006609916823519E-01
   6.082163768585783E-01   6.158667970811138E-01   6.236134477436839E-01
   6.314575392762164E-01   6.394002973339701E-01   6.474429629890532E-01
   6.555867929243353E-01   6.638330596298135E-01   6.721830516014389E-01
   6.806380735424429E-01   6.891994465672080E-01   6.978685084076851E-01
   7.066466136224254E-01   7.155351338082293E-01   7.245354578144569E-01
   7.336489919600483E-01   7.428771602532525E-01   7.522214046141414E-01
   7.616831850999092E-01   7.712639801330039E-01   7.809652867321445E-01
   7.907886207462219E-01   8.007355170911628E-01   8.108075299897597E-01
   8.210062332145167E-01   8.313332203335650E-01   8.417901049596499E-01
   8.523785210022697E-01   8.631001229229753E-01   8.739565859938768E-01
   8.849496065594200E-01   8.960809023014306E-01   9.073522125075163E-01
   9.187652983428305E-01   9.303219431252516E-01   9.420239526040424E-01
   9.538731552419885E-01   9.658714025011113E-01   9.780205691319570E-01
   9.903225534665263E-01   1.002779277714903E+00   1.015392688265592E+00
   1.028164755989654E+00   1.041097476548660E+00   1.054192870706503E+00
   1.067452984645168E+00   1.080879890284432E+00   1.094475685605620E+00
   1.108242494979414E+00   1.122182469497784E+00   1.136297787310112E+00
   1.150590653963522E+00   1.165063302747508E+00   1.179717995042890E+00
   1.194557020675151E+00   1.209582698272239E+00   1.224797375626845E+00
   1.240203430063263E+00   1.255803268808843E+00   1.271599329370125E+00
   1.287594079913711E+00   1.303790019651913E+00   1.320189679233266E+00
   1.336795621137949E+00   1.353610440078164E+00   1.370636763403585E+00
   1.387877251511868E+00   1.405334598264358E+00   1.423011531407005E+00
   1.440910812996570E+00   1.459035239832225E+00   1.477387643892532E+00
   1.495970892777968E+00   1.514787890158974E+00   1.533841576229677E+00
   1.553134928167294E+00   1.572670960597312E+00   1.592452726064550E+00
   1.612483315510103E+00   1.632765858754327E+00   1.653303524985872E+00
   1.674099523256866E+00   1.695157102984353E+00   1.716479554458003E+00
   1.738070209354241E+00   1.759932441256826E+00   1.782069666183964E+00
   1.804485343122095E+00   1.827182974566340E+00   1.850166107067794E+00
   1.873438331787672E+00   1.897003285058429E+00   1.920864648951963E+00
   1.945026151854921E+00   1.969491569051294E+00   1.994264723312295E+00
   2.019349485493674E+00   2.044749775140564E+00   2.070469561099891E+00
   2.096512862140543E+00   2.122883747581296E+00   2.149586337926646E+00
   2.176624805510669E+00   2.204003375148926E+00   2.231726324798630E+00
   2.259797986227070E+00   2.288222745688449E+00   2.317005044609270E+00
   2.346149380282292E+00   2.375660306569261E+00   2.405542434612453E+00
   2.435800433555164E+00   2.466439031271296E+00   2.497463015104069E+00
   2.528877232614081E+00   2.560686592336733E+00   2.592896064549191E+00
   2.625510682047028E+00   2.658535540930572E+00   2.691975801401220E+00
   2.725836688567708E+00   2.760123493262538E+00   2.794841572868711E+00
   2.829996352156789E+00   2.865593324132563E+00   2.901638050895333E+00
   2.938136164506978E+00   2.975093367872018E+00   3.012515435628656E+00
   3.050408215051122E+00   3.088777626963299E+00   3.127629666663851E+00
   3.166970404863035E+00   3.206805988631226E+00   3.247142642359438E+00
   3.287986668731887E+00   3.329344449710780E+00   3.371222447533551E+00
   3.413627205722548E+00   3.456565350107518E+00   3.500043589860885E+00
   3.544068718546056E+00   3.588647615178969E+00   3.633787245302908E+00
   3.679494662076924E+00   3.725777007377885E+00   3.772641512916395E+00
   3.820095501366803E+00   3.868146387511339E+00   3.916801679398727E+00
   3.966068979517323E+00   4.015955985982993E+00   4.066470493742004E+00
   4.117620395788955E+00   4.169413684400111E+00   4.221858452382200E+00
   4.274962894336904E+00   4.328735307941336E+00   4.383184095244506E+00
   4.438317763980215E+00   4.494144928896382E+00   4.550674313101089E+00
   4.607914749425646E+00   4.665875181804668E+00   4.724564666673642E+00
   4.783992374383995E+00   4.844167590635945E+00   4.905099717929477E+00
   4.966798277033429E+00   5.029272908473196E+00   5.092533374037057E+00
   5.156589558301442E+00   5.221451470175484E+00   5.287129244464856E+00
   5.353633143455424E+00   5.420973558516717E+00   5.489161011725576E+00
   5.558206157510313E+00   5.628119784315407E+00   5.698912816287301E+00
   5.770596314981277E+00   5.843181481089828E+00   5.916679656192855E+00
   5.991102324529730E+00   6.066461114793804E+00   6.142767801949387E+00
   6.220034309071573E+00   6.298272709209319E+00   6.377495227271805E+00
   6.457714241938665E+00   6.538942287594162E+00   6.621192056285666E+00
   6.704476399706895E+00   6.788808331205931E+00   6.874201027818653E+00
   6.960667832327657E+00   7.048222255347039E+00   7.136877977433550E+00
   7.226648851224112E+00   7.317548903600411E+00   7.409592337880579E+00
   7.502793536038461E+00   7.597167060950913E+00   7.692727658673182E+00
   7.789490260743095E+00   7.887469986514104E+00   7.986682145517674E+00
   8.087142239855527E+00   8.188865966621760E+00   8.291869220355657E+00
   8.396168095525187E+00   8.501778889041766E+00   8.608718102806774E+00
   8.717002446289905E+00   8.826648839140148E+00   8.937674413829479E+00
   9.050096518329793E+00   9.163932718823681E+00   9.279200802449031E+00
   9.395918780078444E+00   9.514104889133407E+00   9.633777596433879E+00
   9.754955601083880E+00   9.877657837393148E+00   1.000190347783576E+01
   1.012771193604583E+01   1.025510286985088E+01   1.038409618434353E+01
   1.051471203499157E+01   1.064697083078743E+01   1.078089323743705E+01
   1.091650018058890E+01   1.105381284910377E+01   1.119285269836546E+01
   1.133364145363330E+01   1.147620111343676E+01   1.162055395301269E+01
   1.176672252778600E+01   1.191472967689384E+01   1.206459852675440E+01
   1.221635249468040E+01   1.237001529253804E+01   1.252561093045215E+01
   1.268316372055767E+01   1.284269828079863E+01   1.300423953877466E+01
   1.316781273563593E+01   1.333344343002728E+01   1.350115750208166E+01
   1.367098115746406E+01   1.384294093146616E+01   1.401706369315246E+01
   1.419337664955878E+01   1.437190734994322E+01   1.455268369009096E+01
   1.473573391667296E+01   1.492108663165950E+01   1.510877079678946E+01
   1.529881573809541E+01   1.549125115048613E+01   1.568610710238633E+01
   1.588341404043489E+01   1.608320279424235E+01   1.628550458120791E+01
   1.649035101139740E+01   1.669777409248233E+01   1.690780623474107E+01
   1.712048025612321E+01   1.733582938737723E+01   1.755388727724305E+01
   1.777468799770963E+01   1.799826604933871E+01   1.822465636665578E+01
   1.845389432360846E+01   1.868601573909394E+01   1.892105688255568E+01
   1.915905447965048E+01   1.940004571798716E+01   1.964406825293694E+01
   1.989116021351741E+01   2.014136020835015E+01   2.039470733169333E+01
   2.065124116955048E+01   2.091100180585561E+01   2.117402982873666E+01
   2.144036633685740E+01   2.171005294583900E+01   2.198313179476286E+01
   2.225964555275465E+01   2.253963742565166E+01   2.282315116275371E+01
   2.311023106365896E+01   2.340092198518608E+01   2.369526934838289E+01
   2.399331914562379E+01   2.429511794779602E+01   2.460071291157635E+01
   2.491015178679970E+01   2.522348292391979E+01   2.554075528156432E+01
   2.586201843418470E+01   2.618732257980207E+01   2.651671854785110E+01
   2.685025780712186E+01   2.718799247380226E+01   2.752997531962115E+01
   2.787625978009384E+01   2.822689996287192E+01   2.858195065619722E+01
   2.894146733746298E+01   2.930550618188214E+01   2.967412407126468E+01
   3.004737860290589E+01   3.042532809858562E+01   3.080803161368155E+01
   3.119554894639661E+01   3.158794064710233E+01   3.198526802780037E+01
   3.238759317170224E+01   3.279497894293026E+01   3.320748899634006E+01
   3.362518778746665E+01   3.404814058259606E+01   3.447641346896293E+01
   3.491007336507713E+01   3.534918803117979E+01   3.579382607983072E+01
   3.624405698662981E+01   3.669995110107210E+01   3.716157965754056E+01
   3.762901478643639E+01   3.810232952544938E+01   3.858159783097057E+01
   3.906689458964765E+01   3.955829563008657E+01   4.005587773469975E+01
   4.055971865170321E+01   4.106989710726547E+01   4.158649281780802E+01
   4.210958650246172E+01   4.263925989567914E+01   4.317559576000542E+01
   4.371867789901071E+01   4.426859117038399E+01   4.482542149919279E+01
   4.538925589130895E+01   4.596018244700320E+01   4.653829037471159E+01
   4.712367000497384E+01   4.771641280454821E+01   4.831661139070318E+01
   4.892435954568877E+01   4.953975223139084E+01   5.016288560416839E+01
   5.079385702987877E+01   5.143276509909106E+01   5.207970964249078E+01
   5.273479174647921E+01   5.339811376896770E+01   5.406977935537191E+01
   5.474989345480631E+01   5.543856233648245E+01   5.613589360631439E+01
   5.684199622373158E+01   5.755698051870466E+01   5.828095820898449E+01
   5.901404241755790E+01   5.975634769032416E+01   6.050799001399216E+01
   6.126908683420431E+01   6.203975707388733E+01   6.282012115183391E+01
   6.361030100151910E+01   6.441042009015183E+01   6.522060343796765E+01
   6.604097763776313E+01   6.687167087467580E+01   6.771281294621423E+01
   6.856453528253819E+01   6.942697096699565E+01   7.030025475691713E+01
   7.118452310467120E+01   7.207991417898656E+01   7.298656788653997E+01
   7.390462589381798E+01   7.483423164925216E+01   7.577553040563284E+01
   7.672866924280603E+01   7.769379709065397E+01   7.867106475236659E+01
   7.966062492800444E+01   8.066263223835793E+01   8.167724324910822E+01
   8.270461649528967E+01   8.374491250606236E+01   8.479829382979463E+01
   8.586492505946110E+01   8.694497285836184E+01   8.803860598616245E+01
   8.914599532526432E+01   9.026731390750489E+01   9.140273694119361E+01
   9.255244183848987E+01   9.371660824312261E+01   9.489541805846129E+01
   9.608905547593798E+01   9.729770700382733E+01   9.852156149638991E+01
   9.976081018337982E+01
    </PP_R>
    <PP_RAB>
   1.266502729936828E-06   1.282433373151420E-06   1.298564399189698E-06
   1.314898328557297E-06   1.331437713463917E-06   1.348185138222096E-06
   1.365143219651026E-06   1.382314607485432E-06   1.399701984789598E-06
   1.417308068376604E-06   1.435135609232829E-06   1.453187392947804E-06
   1.471466240149459E-06   1.489975006944857E-06   1.508716585366469E-06
   1.527693903824053E-06   1.546909927562227E-06   1.566367659123795E-06
   1.586070138818899E-06   1.606020445200080E-06   1.626221695543298E-06