<UPF version="2.0.1">
<PP_INFO>
Generated by new atomic code, or converted to UPF format
Author:
Generation date:
Pseudopotential type: US
Element: Si
Functional:  SLA  PW   PBX  PBC
Suggested minimum cutoff for wavefunctions:  21. Ry
Suggested minimum cutoff for charge density: 258. Ry
The Pseudo was generated with a Non-Relativistic Calculation
L component and cutoff radius for Local Potential:  0   0.0000
Pseudopotential contains additional information for GIPAW reconstruction.
Valence configuration:
nl pn  l   occ       Rcut    Rcut US       E pseu
3S  0  0  2.00      2.200      2.400     0.000000
4S  0  0  0.00      1.400      1.600     0.000000
3P  0  1  1.00      2.100      2.300     0.000000
4P  0  1  0.00      2.100      2.300     0.000000
3D  0  2  1.00      0.000      0.000     0.000000
Generation configuration: not available.
</PP_INFO>
<!--
END OF HUMAN READABLE SECTION
-->
<PP_HEADER generated="Generated by new atomic code, or converted to UPF format" author="" date="" comment="" element="Si" pseudo_type="US" relativistic="no" is_ultrasoft="true" is_paw="false" is_coulomb="false" has_so="false" has_wfc="false" has_gipaw="true" paw_as_gipaw="false" core_correction="false" functional=" SLA  PW   PBX  PBC" z_valence="5.000000000000e0" total_psenergy="-1.115658086114e1" wfc_cutoff="2.070900000000e1" rho_cutoff="2.575700000000e2" l_max="2" l_max_rho="0" l_local="0" mesh_size="1141" number_of_wfc="5" number_of_proj="4"/>
<PP_MESH dx="1.250000000000e-2" mesh="1141" xmin="-7.000000000001e0" rmax="1.005789177290e2" zmesh="1.400000000000e1">
<PP_R>
6.513442611100000e-5 6.595371633350000e-5 6.678331195830001e-5 6.762334261150000e-5
6.847393954960000e-5 6.933523568000000e-5 7.020736558210000e-5 7.109046552779999e-5
7.198467350350001e-5 7.289012923080000e-5 7.380697418910000e-5 7.473535163729999e-5
7.567540663630002e-5 7.662728607140000e-5 7.759113867600000e-5 7.856711505380001e-5
7.955536770320000e-5 8.055605104070002e-5 8.156932142500001e-5 8.259533718170001e-5
8.363425862789999e-5 8.468624809720000e-5 8.575146996510000e-5 8.683009067460000e-5
8.792227876239998e-5 8.902820488510001e-5 9.014804184600001e-5 9.128196462189999e-5
9.243015039040001e-5 9.359277855800002e-5 9.477003078759999e-5 9.596209102740000e-5
9.716914553910000e-5 9.839138292749999e-5 9.962899416970000e-5 1.008821726450000e-4
1.021511141650000e-4 1.034360170040000e-4 1.047370819320000e-4 1.060545122410000e-4
1.073885137840000e-4 1.087392950010000e-4 1.101070669530000e-4 1.114920433590000e-4
1.128944406240000e-4 1.143144778750000e-4 1.157523769950000e-4 1.172083626600000e-4
1.186826623700000e-4 1.201755064870000e-4 1.216871282720000e-4 1.232177639180000e-4
1.247676525900000e-4 1.263370364620000e-4 1.279261607530000e-4 1.295352737670000e-4
1.311646269310000e-4 1.328144748340000e-4 1.344850752700000e-4 1.361766892720000e-4
1.378895811590000e-4 1.396240185740000e-4 1.413802725250000e-4 1.431586174320000e-4
1.449593311640000e-4 1.467826950860000e-4 1.486289941040000e-4 1.504985167030000e-4
1.523915550030000e-4 1.543084047920000e-4 1.562493655840000e-4 1.582147406580000e-4
1.602048371060000e-4 1.622199658860000e-4 1.642604418660000e-4 1.663265838740000e-4
1.684187147490000e-4 1.705371613910000e-4 1.726822548120000e-4 1.748543301860000e-4
1.770537269050000e-4 1.792807886290000e-4 1.815358633410000e-4 1.838193034010000e-4
1.861314656010000e-4 1.884727112210000e-4 1.908434060860000e-4 1.932439206210000e-4
1.956746299120000e-4 1.981359137620000e-4 2.006281567520000e-4 2.031517482990000e-4
2.057070827210000e-4 2.082945592920000e-4 2.109145823120000e-4 2.135675611650000e-4
2.162539103840000e-4 2.189740497160000e-4 2.217284041890000e-4 2.245174041770000e-4
2.273414854650000e-4 2.302010893230000e-4 2.330966625700000e-4 2.360286576440000e-4
2.389975326770000e-4 2.420037515600000e-4 2.450477840210000e-4 2.481301056980000e-4
2.512511982080000e-4 2.544115492290000e-4 2.576116525730000e-4 2.608520082610000e-4
2.641331226060000e-4 2.674555082890000e-4 2.708196844390000e-4 2.742261767160000e-4
2.776755173910000e-4 2.811682454310000e-4 2.847049065810000e-4 2.882860534510000e-4
2.919122456050000e-4 2.955840496400000e-4 2.993020392850000e-4 3.030667954820000e-4
3.068789064819999e-4 3.107389679360000e-4 3.146475829860000e-4 3.186053623609999e-4
3.226129244720000e-4 3.266708955090000e-4 3.307799095380000e-4 3.349406086009999e-4
3.391536428150000e-4 3.434196704760000e-4 3.477393581590000e-4 3.521133808250000e-4
3.565424219220001e-4 3.610271734980000e-4 3.655683363050000e-4 3.701666199080000e-4
3.748227427990000e-4 3.795374325050000e-4 3.843114257080000e-4 3.891454683530000e-4
3.940403157690000e-4 3.989967327860000e-4 4.040154938540000e-4 4.090973831650000e-4
4.142431947740000e-4 4.194537327260001e-4 4.247298111770000e-4 4.300722545239999e-4
4.354818975370000e-4 4.409595854820000e-4 4.465061742590000e-4 4.521225305350000e-4
4.578095318750000e-4 4.635680668870000e-4 4.693990353520000e-4 4.753033483719999e-4
4.812819285060000e-4 4.873357099210000e-4 4.934656385320000e-4 4.996726721540001e-4
5.059577806469999e-4 5.123219460719999e-4 5.187661628440000e-4 5.252914378840000e-4
5.318987907800000e-4 5.385892539450000e-4 5.453638727760000e-4 5.522237058209999e-4
5.591698249450000e-4 5.662033154910000e-4 5.733252764570000e-4 5.805368206639999e-4
5.878390749299999e-4 5.952331802480001e-4 6.027202919610000e-4 6.103015799460000e-4
6.179782287940000e-4 6.257514379979999e-4 6.336224221380000e-4 6.415924110700000e-4
6.496626501210000e-4 6.578344002830000e-4 6.661089384090001e-4 6.744875574120001e-4
6.829715664670001e-4 6.915622912200002e-4 7.002610739869999e-4 7.090692739720001e-4
7.179882674740000e-4 7.270194481030000e-4 7.361642270000001e-4 7.454240330549999e-4
7.548003131320000e-4 7.642945322940000e-4 7.739081740310000e-4 7.836427404949999e-4
7.934997527319999e-4 8.034807509190001e-4 8.135872946080001e-4 8.238209629670001e-4
8.341833550280001e-4 8.446760899350000e-4 8.553008072000001e-4 8.660591669560000e-4
8.769528502189999e-4 8.879835591490000e-4 8.991530173170002e-4 9.104629699730001e-4
9.219151843199999e-4 9.335114497910000e-4 9.452535783240000e-4 9.571434046530001e-4
9.691827865860001e-4 9.813736053010002e-4 9.937177656379998e-4 1.006217196400000e-3
1.018873850640000e-3 1.031689706000000e-3 1.044666764970000e-3 1.057807055250000e-3
1.071112630030000e-3 1.084585568350000e-3 1.098227975360000e-3 1.112041982730000e-3
1.126029748920000e-3 1.140193459550000e-3 1.154535327730000e-3 1.169057594400000e-3
1.183762528700000e-3 1.198652428300000e-3 1.213729619780000e-3 1.228996458990000e-3
1.244455331390000e-3 1.260108652470000e-3 1.275958868090000e-3 1.292008454880000e-3
1.308259920620000e-3 1.324715804640000e-3 1.341378678190000e-3 1.358251144890000e-3
1.375335841100000e-3 1.392635436330000e-3 1.410152633680000e-3 1.427890170250000e-3
1.445850817560000e-3 1.464037382000000e-3 1.482452705260000e-3 1.501099664780000e-3
1.519981174170000e-3 1.539100183710000e-3 1.558459680790000e-3 1.578062690360000e-3
1.597912275440000e-3 1.618011537560000e-3 1.638363617280000e-3 1.658971694650000e-3
1.679838989710000e-3 1.700968763040000e-3 1.722364316200000e-3 1.744028992290000e-3
1.765966176450000e-3 1.788179296430000e-3 1.810671823050000e-3 1.833447270830000e-3
1.856509198480000e-3 1.879861209470000e-3 1.903506952600000e-3 1.927450122560000e-3
1.951694460520000e-3 1.976243754710000e-3 2.001101841020000e-3 2.026272603550000e-3
2.051759975300000e-3 2.077567938730000e-3 2.103700526360000e-3 2.130161821490000e-3
2.156955958740000e-3 2.184087124740000e-3 2.211559558800000e-3 2.239377553540000e-3
2.267545455580000e-3 2.296067666210000e-3 2.324948642080000e-3 2.354192895910000e-3
2.383804997170000e-3 2.413789572810000e-3 2.444151307980000e-3 2.474894946760000e-3
2.506025292920000e-3 2.537547210620000e-3 2.569465625240000e-3 2.601785524100000e-3
2.634511957230000e-3 2.667650038220000e-3 2.701204944950000e-3 2.735181920450000e-3
2.769586273690000e-3 2.804423380430000e-3 2.839698684020000e-3 2.875417696300000e-3
2.911585998450001e-3 2.948209241840000e-3 2.985293148919999e-3 3.022843514130000e-3
3.060866204790000e-3 3.099367162020000e-3 3.138352401670000e-3 3.177828015270000e-3
3.217800170970000e-3 3.258275114490000e-3 3.299259170120000e-3 3.340758741709999e-3
3.382780313650000e-3 3.425330451900000e-3 3.468415805000000e-3 3.512043105130000e-3
3.556219169130000e-3 3.600950899620000e-3 3.646245286010000e-3 3.692109405650000e-3
3.738550424890000e-3 3.785575600240000e-3 3.833192279480000e-3 3.881407902809999e-3
3.930230004030000e-3 3.979666211680000e-3 4.029724250270000e-3 4.080411941470000e-3
4.131737205350000e-3 4.183708061560000e-3 4.236332630670001e-3 4.289619135380001e-3
4.343575901800000e-3 4.398211360800000e-3 4.453534049260000e-3 4.509552611490000e-3
4.566275800480000e-3 4.623712479359999e-3 4.681871622720001e-3 4.740762318040000e-3
4.800393767120000e-3 4.860775287500000e-3 4.921916313900000e-3 4.983826399750000e-3
5.046515218600000e-3 5.109992565730000e-3 5.174268359590000e-3 5.239352643410000e-3
5.305255586740000e-3 5.371987487049999e-3 5.439558771330000e-3 5.507979997739999e-3
5.577261857229999e-3 5.647415175230000e-3 5.718450913340000e-3 5.790380171040001e-3
5.863214187420001e-3 5.936964342950001e-3 6.011642161239999e-3 6.087259310839999e-3
6.163827607100000e-3 6.241359013960000e-3 6.319865645860000e-3 6.399359769629999e-3
6.479853806390000e-3 6.561360333480000e-3 6.643892086479999e-3 6.727461961130000e-3
6.812083015400000e-3 6.897768471500000e-3 6.984531717950000e-3 7.072386311700001e-3
7.161345980200000e-3 7.251424623580000e-3 7.342636316810001e-3 7.434995311900000e-3
7.528516040130000e-3 7.623213114320000e-3 7.719101331059999e-3 7.816195673089999e-3
7.914511311600001e-3 8.014063608599999e-3 8.114868119340001e-3 8.216940594739999e-3
8.320296983820000e-3 8.424953436240001e-3 8.530926304770002e-3 8.638232147890001e-3
8.746887732360001e-3 8.856910035829999e-3 8.968316249510000e-3 9.081123780860000e-3
9.195350256269998e-3 9.311013523869999e-3 9.428131656270001e-3 9.546722953430001e-3
9.666805945470001e-3 9.788399395610000e-3 9.911522303069999e-3 1.003619390610000e-2
1.016243368480000e-2 1.029026136440000e-2 1.041969691830000e-2 1.055076057110000e-2
1.068347280160000e-2 1.081785434650000e-2 1.095392620320000e-2 1.109170963310000e-2
1.123122616530000e-2 1.137249759930000e-2 1.151554600930000e-2 1.166039374670000e-2
1.180706344440000e-2 1.195557801980000e-2 1.210596067850000e-2 1.225823491830000e-2
1.241242453220000e-2 1.256855361270000e-2 1.272664655520000e-2 1.288672806220000e-2
1.304882314660000e-2 1.321295713620000e-2 1.337915567730000e-2 1.354744473860000e-2
1.371785061580000e-2 1.389039993500000e-2 1.406511965740000e-2 1.424203708350000e-2
1.442117985680000e-2 1.460257596870000e-2 1.478625376290000e-2 1.497224193940000e-2
1.516056955910000e-2 1.535126604860000e-2 1.554436120470000e-2 1.573988519880000e-2
1.593786858200000e-2 1.613834228970000e-2 1.634133764610000e-2 1.654688636980000e-2
1.675502057810000e-2 1.696577279250000e-2 1.717917594350000e-2 1.739526337560000e-2
1.761406885300000e-2 1.783562656450000e-2 1.805997112890000e-2 1.828713760060000e-2
1.851716147470000e-2 1.875007869300000e-2 1.898592564920000e-2 1.922473919490000e-2
1.946655664530000e-2 1.971141578470000e-2 1.995935487300000e-2 2.021041265100000e-2
2.046462834720000e-2 2.072204168310000e-2 2.098269288030000e-2 2.124662266580000e-2
2.151387227940000e-2 2.178448347940000e-2 2.205849854910000e-2 2.233596030420000e-2
2.261691209850000e-2 2.290139783130000e-2 2.318946195420000e-2 2.348114947760000e-2
2.377650597840000e-2 2.407557760670000e-2 2.437841109290000e-2 2.468505375550000e-2
2.499555350790000e-2 2.530995886650000e-2 2.562831895760000e-2 2.595068352560000e-2
2.627710294080000e-2 2.660762820680000e-2 2.694231096880000e-2 2.728120352170000e-2
2.762435881820000e-2 2.797183047690000e-2 2.832367279110000e-2 2.867994073670000e-2
2.904068998150000e-2 2.940597689310000e-2 2.977585854850000e-2 3.015039274230000e-2
3.052963799630000e-2 3.091365356840000e-2 3.130249946180000e-2 3.169623643440000e-2
3.209492600840000e-2 3.249863047990000e-2 3.290741292850000e-2 3.332133722730000e-2
3.374046805290000e-2 3.416487089530000e-2 3.459461206820000e-2 3.502975871970000e-2
3.547037884220000e-2 3.591654128360000e-2 3.636831575770000e-2 3.682577285510000e-2
3.728898405440000e-2 3.775802173330000e-2 3.823295917990000e-2 3.871387060420000e-2
3.920083114960000e-2 3.969391690450000e-2 4.019320491480000e-2 4.069877319510001e-2
4.121070074150000e-2 4.172906754370000e-2 4.225395459760001e-2 4.278544391790000e-2
4.332361855090000e-2 4.386856258740000e-2 4.442036117610000e-2 4.497910053650000e-2
4.554486797300000e-2 4.611775188770000e-2 4.669784179500000e-2 4.728522833510000e-2
4.788000328830000e-2 4.848225958940001e-2 4.909209134220000e-2 4.970959383419999e-2
5.033486355130000e-2 5.096799819330000e-2 5.160909668870000e-2 5.225825921050000e-2
5.291558719160000e-2 5.358118334080000e-2 5.425515165890000e-2 5.493759745490000e-2
5.562862736220000e-2 5.632834935580000e-2 5.703687276850000e-2 5.775430830870000e-2
5.848076807700000e-2 5.921636558430000e-2 5.996121576920000e-2 6.071543501610001e-2
6.147914117319999e-2 6.225245357120000e-2 6.303549304180001e-2 6.382838193630000e-2
6.463124414540000e-2 6.544420511790000e-2 6.626739188060000e-2 6.710093305810000e-2
6.794495889289999e-2 6.879960126579999e-2 6.966499371629999e-2 7.054127146380001e-2
7.142857142860000e-2 7.232703225290001e-2 7.323679432320001e-2 7.415799979159999e-2
7.509079259829999e-2 7.603531849410000e-2 7.699172506320000e-2 7.796016174589999e-2
7.894077986250001e-2 7.993373263660000e-2 8.093917521910001e-2 8.195726471230000e-2
8.298816019490001e-2 8.403202274630001e-2 8.508901547230000e-2 8.615930353010000e-2
8.724305415430001e-2 8.834043668320001e-2 8.945162258509999e-2 9.057678548509999e-2
9.171610119200000e-2 9.286974772630000e-2 9.403790534770000e-2 9.522075658310001e-2
9.641848625540000e-2 9.763128151240000e-2 9.885933185579999e-2 1.001028291710000e-1
1.013619677570000e-1 1.026369443560000e-1 1.039279581870000e-1 1.052352109730000e-1
1.065589069740000e-1 1.078992530220000e-1 1.092564585470000e-1 1.106307356170000e-1
1.120222989640000e-1 1.134313660230000e-1 1.148581569630000e-1 1.163028947250000e-1
1.177658050500000e-1 1.192471165220000e-1 1.207470605990000e-1 1.222658716490000e-1
1.238037869910000e-1 1.253610469260000e-1 1.269378947800000e-1 1.285345769380000e-1
1.301513428850000e-1 1.317884452440000e-1 1.334461398170000e-1 1.351246856200000e-1
1.368243449300000e-1 1.385453833220000e-1 1.402880697120000e-1 1.420526763990000e-1
1.438394791050000e-1 1.456487570230000e-1 1.474807928550000e-1 1.493358728610000e-1
1.512142869010000e-1 1.531163284810000e-1 1.550422947990000e-1 1.569924867910000e-1
1.589672091780000e-1 1.609667705150000e-1 1.629914832380000e-1 1.650416637110000e-1
1.671176322800000e-1 1.692197133200000e-1 1.713482352830000e-1 1.735035307570000e-1
1.756859365110000e-1 1.778957935500000e-1 1.801334471680000e-1 1.823992470040000e-1
1.846935470940000e-1 1.870167059260000e-1 1.893690864990000e-1 1.917510563770000e-1
1.941629877470000e-1 1.966052574790000e-1 1.990782471830000e-1 2.015823432680000e-1
2.041179370050000e-1 2.066854245840000e-1 2.092852071810000e-1 2.119176910180000e-1
2.145832874250000e-1 2.172824129070000e-1 2.200154892080000e-1 2.227829433780000e-1
2.255852078350000e-1 2.284227204400000e-1 2.312959245600000e-1 2.342052691380000e-1
2.371512087670000e-1 2.401342037540000e-1 2.431547201990000e-1 2.462132300640000e-1
2.493102112470000e-1 2.524461476580000e-1 2.556215292930000e-1 2.588368523120000e-1
2.620926191160000e-1 2.653893384240000e-1 2.687275253570000e-1 2.721077015120000e-1
2.755303950500000e-1 2.789961407720000e-1 2.825054802090000e-1 2.860589617010000e-1
2.896571404890000e-1 2.933005787940000e-1 2.969898459110000e-1 3.007255182960000e-1
3.045081796550000e-1 3.083384210360000e-1 3.122168409240000e-1 3.161440453270000e-1
3.201206478810000e-1 3.241472699380000e-1 3.282245406650000e-1 3.323530971440000e-1
3.365335844710000e-1 3.407666558550000e-1 3.450529727220000e-1 3.493932048190000e-1
3.537880303140000e-1 3.582381359090000e-1 3.627442169410000e-1 3.673069774960000e-1
3.719271305130000e-1 3.766053979010000e-1 3.813425106480000e-1 3.861392089390000e-1
3.909962422660000e-1 3.959143695520000e-1 4.008943592640001e-1 4.059369895350001e-1
4.110430482860000e-1 4.162133333500000e-1 4.214486525940000e-1 4.267498240480000e-1
4.321176760289999e-1 4.375530472770000e-1 4.430567870790000e-1 4.486297554050000e-1
4.542728230430000e-1 4.599868717340000e-1 4.657727943090000e-1 4.716314948310000e-1
4.775638887340000e-1 4.835709029660000e-1 4.896534761360000e-1 4.958125586570000e-1
5.020491128990000e-1 5.083641133370000e-1 5.147585467010000e-1 5.212334121360001e-1
5.277897213519999e-1 5.344284987860000e-1 5.411507817600000e-1 5.479576206440000e-1
5.548500790220000e-1 5.618292338530000e-1 5.688961756449999e-1 5.760520086220000e-1
5.832978508980000e-1 5.906348346490001e-1 5.980641062949999e-1 6.055868266740000e-1
6.132041712270000e-1 6.209173301790000e-1 6.287275087279999e-1 6.366359272280000e-1
6.446438213880000e-1 6.527524424559999e-1 6.609630574220001e-1 6.692769492100000e-1
6.776954168830000e-1 6.862197758430000e-1 6.948513580400000e-1 7.035915121750000e-1
7.124416039150000e-1 7.214030161060000e-1 7.304771489850000e-1 7.396654204050001e-1
7.489692660519999e-1 7.583901396700000e-1 7.679295132910000e-1 7.775888774610000e-1
7.873697414740000e-1 7.972736336120000e-1 8.073021013769999e-1 8.174567117380001e-1
8.277390513729999e-1 8.381507269190001e-1 8.486933652210000e-1 8.593686135890000e-1
8.701781400500000e-1 8.811236336169999e-1 8.922068045430001e-1 9.034293845990000e-1
9.147931273330000e-1 9.262998083550000e-1 9.379512256060000e-1 9.497491996450000e-1
9.616955739289999e-1 9.737922151019999e-1 9.860410132910001e-1 9.984438823929999e-1
1.011002760380000e0 1.023719609610000e0 1.036596417110000e0 1.049635194910000e0
1.062837980350000e0 1.076206836380000e0 1.089743851920000e0 1.103451142150000e0
1.117330848870000e0 1.131385140810000e0 1.145616213980000e0 1.160026292010000e0
1.174617626510000e0 1.189392497400000e0 1.204353213290000e0 1.219502111820000e0
1.234841560040000e0 1.250373954760000e0 1.266101722960000e0 1.282027322130000e0
1.298153240670000e0 1.314481998300000e0 1.331016146420000e0 1.347758268520000e0
1.364710980590000e0 1.381876931520000e0 1.399258803540000e0 1.416859312600000e0
1.434681208800000e0 1.452727276860000e0 1.471000336510000e0 1.489503242960000e0
1.508238887320000e0 1.527210197080000e0 1.546420136540000e0 1.565871707290000e0
1.585567948670000e0 1.605511938280000e0 1.625706792390000e0 1.646155666500000e0
1.666861755780000e0 1.687828295600000e0 1.709058562030000e0 1.730555872330000e0
1.752323585510000e0 1.774365102810000e0 1.796683868270000e0 1.819283369240000e0
1.842167136940000e0 1.865338747000000e0 1.888801820040000e0 1.912560022200000e0
1.936617065760000e0 1.960976709680000e0 1.985642760190000e0 2.010619071430000e0
2.035909545980000e0 2.061518135550000e0 2.087448841520000e0 2.113705715610000e0
2.140292860530000e0 2.167214430560000e0 2.194474632250000e0 2.222077725070000e0
2.250028022050000e0 2.278329890490000e0 2.306987752620000e0 2.336006086270000e0
2.365389425620000e0 2.395142361890000e0 2.425269544020000e0 2.455775679450000e0
2.486665534830000e0 2.517943936760000e0 2.549615772550000e0 2.581685990990000e0
2.614159603120000e0 2.647041683010000e0 2.680337368540000e0 2.714051862250000e0
2.748190432070000e0 2.782758412250000e0 2.817761204090000e0 2.853204276840000e0
2.889093168580000e0 2.925433486990000e0 2.962230910350000e0 2.999491188300000e0
3.037220142860000e0 3.075423669250000e0 3.114107736840000e0 3.153278390100000e0
3.192941749520000e0 3.233104012590000e0 3.273771454740000e0 3.314950430340000e0
3.356647373680000e0 3.398868800010000e0 3.441621306510000e0 3.484911573330000e0
3.528746364680000e0 3.573132529830000e0 3.618077004200000e0 3.663586810470000e0
3.709669059630000e0 3.756330952130000e0 3.803579778980000e0 3.851422922910000e0
3.899867859510000e0 3.948922158400000e0 3.998593484400000e0 4.048889598780000e0
4.099818360390000e0 4.151387726960000e0 4.203605756310000e0 4.256480607610000e0
4.310020542670000e0 4.364233927200000e0 4.419129232170000e0 4.474715035070000e0
4.531000021290000e0 4.587992985490000e0 4.645702832930000e0 4.704138580890000e0
4.763309360070000e0 4.823224416020000e0 4.883893110610000e0 4.945324923430000e0
5.007529453330000e0 5.070516419900000e0 5.134295664980000e0 5.198877154190000e0
5.264270978540000e0 5.330487355940000e0 5.397536632840000e0 5.465429285810000e0
5.534175923230000e0 5.603787286900000e0 5.674274253730000e0 5.745647837460000e0
5.817919190350000e0 5.891099604960000e0 5.965200515860000e0 6.040233501480000e0
6.116210285870000e0 6.193142740560000e0 6.271042886410000e0 6.349922895470000e0
6.429795092890000e0 6.510671958890000e0 6.592566130620000e0 6.675490404220000e0
6.759457736780000e0 6.844481248360000e0 6.930574224070000e0 7.017750116090000e0
7.106022545850000e0 7.195405306090000e0 7.285912363050000e0 7.377557858640000e0
7.470356112650000e0 7.564321625010000e0 7.659469078000000e0 7.755813338630000e0
7.853369460870000e0 7.952152688060000e0 8.052178455290001e0 8.153462391790001e0
8.256020323370000e0 8.359868274929999e0 8.465022472910000e0 8.571499347870001e0
8.679315537050000e0 8.788487886940000e0 8.899033455940000e0 9.010969517030000e0
9.124313560430000e0 9.239083296390000e0 9.355296657920000e0 9.472971803580000e0
9.592127120350000e0 9.712781226510000e0 9.834952974489999e0 9.958661453880000e0
1.008392599440000e1 1.021076616890000e1 1.033920179630000e1 1.046925294510000e1
1.060093993590000e1 1.073428334520000e1 1.086930400800000e1 1.100602302180000e1
1.114446174900000e1 1.128464182110000e1 1.142658514140000e1 1.157031388890000e1
1.171585052140000e1 1.186321777950000e1 1.201243868940000e1 1.216353656740000e1
1.231653502260000e1 1.247145796160000e1 1.262832959120000e1 1.278717442300000e1
1.294801727680000e1 1.311088328470000e1 1.327579789470000e1 1.344278687520000e1
1.361187631850000e1 1.378309264510000e1 1.395646260800000e1 1.413201329660000e1
1.430977214110000e1 1.448976691650000e1 1.467202574750000e1 1.485657711240000e1
1.504344984760000e1 1.523267315250000e1 1.542427659360000e1 1.561829010930000e1
1.581474401460000e1 1.601366900580000e1 1.621509616540000e1 1.641905696670000e1
1.662558327910000e1 1.683470737270000e1 1.704646192360000e1 1.726088001890000e1
1.747799516170000e1 1.769784127690000e1 1.792045271580000e1 1.814586426180000e1
1.837411113610000e1 1.860522900270000e1 1.883925397410000e1 1.907622261720000e1
1.931617195900000e1 1.955913949190000e1 1.980516318020000e1 2.005428146550000e1
2.030653327310000e1 2.056195801790000e1 2.082059561040000e1 2.108248646330000e1
2.134767149760000e1 2.161619214910000e1 2.188809037450000e1 2.216340865860000e1
2.244219002040000e1 2.272447802000000e1 2.301031676560000e1 2.329975092000000e1
2.359282570780000e1 2.388958692270000e1 2.419008093410000e1 2.449435469490000e1
2.480245574850001e1 2.511443223620000e1 2.543033290510000e1 2.575020711520000e1
2.607410484750000e1 2.640207671180000e1 2.673417395430000e1 2.707044846590000e1
2.741095279010000e1 2.775574013140000e1 2.810486436360000e1 2.845838003810000e1
2.881634239230000e1 2.917880735870000e1 2.954583157310000e1 2.991747238370000e1
3.029378786030000e1 3.067483680290000e1 3.106067875120000e1 3.145137399370000e1
3.184698357730000e1 3.224756931700000e1 3.265319380490000e1 3.306392042080001e1
3.347981334160000e1 3.390093755130000e1 3.432735885150000e1 3.475914387130000e1
3.519636007810000e1 3.563907578770000e1 3.608736017550001e1 3.654128328670000e1
3.700091604770000e1 3.746633027720000e1 3.793759869700000e1 3.841479494380000e1
3.889799358040000e1 3.938727010770000e1 3.988270097610000e1 4.038436359760000e1
4.089233635810000e1 4.140669862940000e1 4.192753078160000e1 4.245491419570000e1
4.298893127660000e1 4.352966546540000e1 4.407720125310000e1 4.463162419310001e1
4.519302091520000e1 4.576147913870000e1 4.633708768650000e1 4.691993649850001e1
4.751011664600000e1 4.810772034590000e1 4.871284097500000e1 4.932557308470000e1
4.994601241540000e1 5.057425591220000e1 5.121040173940000e1 5.185454929610000e1
5.250679923160000e1 5.316725346130000e1 5.383601518250000e1 5.451318889060000e1
5.519888039540001e1 5.589319683750000e1 5.659624670540000e1 5.730813985200000e1
5.802898751200001e1 5.875890231930001e1 5.949799832470000e1 6.024639101340000e1
6.100419732330000e1 6.177153566310000e1 6.254852593100001e1 6.333528953340000e1
6.413194940360000e1 6.493863002140000e1 6.575545743220001e1 6.658255926710000e1
6.742006476230000e1 6.826810477970000e1 6.912681182750001e1 6.999632008020000e1
7.087676540040000e1 7.176828535929999e1 7.267101925890000e1 7.358510815300000e1
7.451069487000000e1 7.544792403470000e1 7.639694209100000e1 7.735789732500000e1
7.833093988770000e1 7.931622181930000e1 8.031389707180001e1 8.132412153420001e1
8.234705305600000e1 8.338285147230001e1 8.443167862890000e1 8.549369840700001e1
8.656907674950000e1 8.765798168630001e1 8.876058336110001e1 8.987705405760002e1
9.100756822670000e1 9.215230251340001e1 9.331143578500001e1 9.448514915820001e1
9.567362602820001e1 9.687705209690002e1 9.809561540210000e1 9.932950634680001e1
1.005789177290000e2
</PP_R>
<PP_RAB>
8.141803263880000e-7 8.244214541689999e-7 8.347913994790000e-7 8.452917826440000e-7
8.559242443699999e-7 8.666904460000000e-7 8.775920697760000e-7 8.886308190979999e-7
8.998084187930001e-7 9.111266153850000e-7 9.225871773639998e-7 9.341918954660001e-7
9.459425829530000e-7 9.578410758930000e-7 9.698892334500000e-7 9.820889381730002e-7
9.944420962900001e-7 1.006950638010000e-6 1.019616517810000e-6 1.032441714770000e-6
1.045428232850000e-6 1.058578101220000e-6 1.071893374560000e-6 1.085376133430000e-6
1.099028484530000e-6 1.112852561060000e-6 1.126850523080000e-6 1.141024557770000e-6
1.155376879880000e-6 1.169909731970000e-6 1.184625384850000e-6 1.199526137840000e-6
1.214614319240000e-6 1.229892286590000e-6 1.245362427120000e-6 1.261027158060000e-6
1.276888927060000e-6 1.292950212550000e-6 1.309213524150000e-6 1.325681403020000e-6
1.342356422300000e-6 1.359241187510000e-6 1.376338336920000e-6 1.393650541990000e-6
1.411180507800000e-6 1.428930973430000e-6 1.446904712440000e-6 1.465104533250000e-6
1.483533279620000e-6 1.502193831090000e-6 1.521089103400000e-6 1.540222048970000e-6
1.559595657380000e-6 1.579212955780000e-6 1.599077009410000e-6 1.619190922080000e-6
1.639557836630000e-6 1.660180935430000e-6 1.681063440870000e-6 1.702208615900000e-6
1.723619764490000e-6 1.745300232170000e-6 1.767253406570000e-6 1.789482717900000e-6
1.811991639549999e-6 1.834783688580000e-6 1.857862426290000e-6 1.881231458790000e-6
1.904894437530000e-6 1.928855059910000e-6 1.953117069810001e-6 1.977684258220000e-6
2.002560463830000e-6 2.027749573580000e-6 2.053255523329999e-6 2.079082298430000e-6
2.105233934370000e-6 2.131714517390000e-6 2.158528185150000e-6 2.185679127320000e-6
2.213171586310000e-6 2.241009857860000e-6 2.269198291760000e-6 2.297741292510000e-6
2.326643320010000e-6 2.355908890260000e-6 2.385542576070000e-6 2.415549007760000e-6
2.445932873899999e-6 2.476698922030000e-6 2.507851959400000e-6 2.539396853740000e-6
2.571338534010001e-6 2.603681991150000e-6 2.636432278899999e-6 2.669594514570000e-6
2.703173879800000e-6 2.737175621450000e-6 2.771605052370000e-6 2.806467552210000e-6
2.841768568310000e-6 2.877513616540000e-6 2.913708282120000e-6 2.950358220550000e-6
2.987469158460000e-6 3.025046894500000e-6 3.063097300270000e-6 3.101626321220000e-6
3.140639977600000e-6 3.180144365360000e-6 3.220145657160000e-6 3.260650103260000e-6
3.301664032570000e-6 3.343193853610000e-6 3.385246055490000e-6 3.427827208949999e-6
3.470943967390000e-6 3.514603067880000e-6 3.558811332260000e-6 3.603575668140000e-6
3.648903070060000e-6 3.694800620500000e-6 3.741275491060000e-6 3.788334943520000e-6
3.835986331030000e-6 3.884237099200000e-6 3.933094787330000e-6 3.982567029520000e-6
4.032661555900001e-6 4.083386193860000e-6 4.134748869229999e-6 4.186757607510000e-6
4.239420535190000e-6 4.292745880950000e-6 4.346741976990000e-6 4.401417260310000e-6
4.456780274029999e-6 4.512839668730000e-6 4.569604203810001e-6 4.627082748850000e-6
4.685284284980000e-6 4.744217906320000e-6 4.803892821350001e-6 4.864318354410000e-6
4.925503947109999e-6 4.987459159820000e-6 5.050193673170000e-6 5.113717289559999e-6
5.178039934680000e-6 5.243171659070000e-6 5.309122639710000e-6 5.375903181549999e-6
5.443523719209999e-6 5.511994818520000e-6 5.581327178240000e-6 5.651531631680000e-6
5.722619148440002e-6 5.794600836090000e-6 5.867487941900000e-6 5.941291854639998e-6
6.016024106330001e-6 6.091696374020000e-6 6.168320481660000e-6 6.245908401919999e-6
6.324472258079999e-6 6.404024325899998e-6 6.484577035550000e-6 6.566142973550000e-6
6.648734884750001e-6 6.732365674310000e-6 6.817048409700001e-6 6.902796322770000e-6
6.989622811809999e-6 7.077541443629999e-6 7.166565955710000e-6 7.256710258299998e-6
7.347988436630002e-6 7.440414753100001e-6 7.534003649510001e-6 7.628769749319999e-6
7.724727859930001e-6 7.821892974979999e-6 7.920280276719999e-6 8.019905138370000e-6
8.120783126510000e-6 8.222930003540002e-6 8.326361730109999e-6 8.431094467650000e-6
8.537144580840000e-6 8.644528640250002e-6 8.753263424840000e-6 8.863365924650001e-6
8.974853343420000e-6 9.087743101290000e-6 9.202052837499998e-6 9.317800413189998e-6
9.435003914150002e-6 9.553681653670001e-6 9.673852175390001e-6 9.795534256189997e-6
9.918746909139999e-6 1.004350938650000e-5 1.016984118260000e-5 1.029776203710000e-5
1.042729193790000e-5 1.055845112420000e-5 1.069126009000000e-5 1.082573958700000e-5
1.096191062770000e-5 1.109979448940000e-5 1.123941271650000e-5 1.138078712470000e-5
1.152393980400000e-5 1.166889312240000e-5 1.181566972910000e-5 1.196429255820000e-5
1.211478483230000e-5 1.226717006630000e-5 1.242147207050000e-5 1.257771495500000e-5
1.273592313300000e-5 1.289612132500000e-5 1.305833456210000e-5 1.322258819060000e-5
1.338890787540000e-5 1.355731960430000e-5 1.372784969200000e-5 1.390052478410000e-5